Name,pKa,Weight,∆H,∆G_solv,Bond Order,SASA,Charge_0p,Charge_0d,Charge_1p,Charge_1d,Charge_2p,Charge_2d,smiles
Thiamylal,7.48,254.349,1.88680534258,2.92241050032,0.702178694157,12.3150432021,-0.561670003938,-0.477690011318,0.628469975186,0.626145005171,-0.461247997092,-0.535000008399,CCC[C@@H](C)C1(C(=O)NC(=S)NC1=O)CC=C
Thiopental,7.55,242.338,-0.581574565223,-2.62977214521,0.714457581332,12.3150432021,-0.561720013399,-0.480219989959,0.627810001592,0.62725999957,-0.462981998701,-0.538375997487,CCC[C@H](C)C1(C(=O)NC(=S)NC1=O)CC
Thymol,10.6,150.2176,3.59259115665,-4.72926981818,0.59653275867,16.9947596189,-0.50164997533,-0.806249976352,0.129679993242,0.563229977891,-0.156700003445,-0.311604991749,Cc1ccc(c(c1)O)C(C)C
Tolazoline,10.3,160.2157,-2.35985359732,173.429610014,0.717330697311,11.3298397459,-0.811779976357,-0.822319985813,0.336625001859,0.333020000273,-0.351764997002,-0.389824993422,c1ccc(cc1)CC2=NCCN2
Tolbutamide,5.16,270.348,-0.0794339982554,-4.47709737188,0.718097427214,11.822441474,-0.562160014324,-0.585940003235,0.448365003653,0.40469000877,-0.4922625098,-0.543490001772,CCCCNC(=O)NS(=O)(=O)c1ccc(cc1)C
Tolfenamic acid,5.11,261.704,0.847541683552,277.634753378,0.714087981046,8.62053024145,-0.646229982997,-0.550010023639,0.198614999031,0.255935000256,-0.264395999039,-0.28505400531,Cc1c(cccc1Cl)Nc2ccccc2C(=O)O
Tolmetin,3.5,257.2845,3.39905967612,299.108557937,0.573284503254,16.0095561627,-0.616770029561,-0.586049974444,0.628679990275,0.619130014893,-0.293434991063,-0.207825005534,Cc1ccc(cc1)C(=O)c2ccc(n2C)CC(=O)O
Topiramate,8.7,339.362,-2.20183704158,-10.5298791843,0.711600952133,11.822441474,-1.02058995099,-1.27794003283,1.73599004416,1.86775994505,-0.638753337973,-0.728809990432,CC1(O[C@@H]2CO[C@@]3([C@H]([C@@H]2O1)OC(O3)(C)C)COS(=O)(=O)N)C
Tramadol,9.41,263.3752,2.68570431284,204.37995657,0.611770354515,10.8372380178,-0.598160028458,-0.858349978436,0.204300001264,0.451090008508,-0.0755199988683,-0.0930766681924,CN(C)C[C@H]1CCCC[C@@]1(c2cccc(c2)OC)O
Triclosan,7.9,289.542,5.12306400069,3.16217372141,0.598031279369,17.733662211,-0.488079995902,-0.751489995128,0.136800005047,0.574949981564,-0.0738100012483,-0.240215001709,c1cc(c(cc1Cl)O)Oc2ccc(cc2Cl)Cl
Trimethobenzamide,8.78,388.4574,0.0628599452086,207.693249385,0.726582452567,8.86683110549,-0.563030003171,-0.575649977116,0.408594997068,0.341059997293,-0.355477506827,-0.362769998995,CN(C)CCOc1ccc(cc1)CNC(=O)c2cc(c(c(c2)OC)OC)OC
Trimethoprim,7.12,290.3177,2.07355489148,-3.04444538716,0.700739589815,10.8372380178,-0.938660025406,-0.771199999451,0.713169992161,0.839360000492,-0.619714990067,-0.851449994444,COc1cc(cc(c1OC)OC)Cc2cnc(nc2N)N
Uracil,9.45,112.0868,0.472349664725,-1.8097071365,0.697614809873,11.822441474,-0.472660004472,-0.424380001697,0.425669994826,0.395535006103,-0.502455002939,-0.56795500693,c1c[nH]c(=O)[nH]c1=O
Urea,0.1,60.0553,-0.937118854819,1.62920275856,0.700332334268,11.0835388819,-0.693620026112,-0.732290027397,0.774909973145,0.62256002639,-0.675805002451,-0.754530010479,C(=O)(N)N
Valine,2.3,117.1463,-0.294535639694,159.507000628,0.572845079017,15.7632552987,-0.604770006122,-0.640349982513,0.6443999992,0.532779993282,-0.206829996289,-0.19436000122,CC(C)[C@@H](C(=O)O)N
Valproic acid,4.8,144.2114,2.2939449078,304.697331379,0.577231975048,15.5169544346,-0.61351001234,-0.848510024324,0.638559997368,0.911589982733,-0.327254987967,-0.518195008114,CCCC(CCC)C(=O)O
Valsartan,4.73,435.5188,0.213321557124,730.464228145,0.713396921607,11.822441474,0.0920099981633,-0.179759994165,-0.311590001682,-0.308574996904,0.092276664377,-0.0864666650848,CCCCC(=O)N(Cc1ccc(cc1)c2ccccc2c3n[nH]nn3)[C@@H](C(C)C)C(=O)O
Vanillic acid,4.51,167.1388,1.22951461832,-0.836184862109,0.60164671829,17.733662211,-0.519410009545,-0.847850024235,0.0836900071682,0.550530016888,-0.106889999521,-0.272214993369,COc1cc(ccc1O)C(=O)[O-]
Vemurafenib,7.1,489.922,7.56273982934,4.83557536191,0.70127501743,13.7928483863,-0.780650019317,-0.928929985017,0.762555010945,0.968824997097,-0.382943338075,-0.472996661887,CCCS(=O)(=O)Nc1ccc(c(c1F)C(=O)c2c[nH]c3c2cc(cn3)c4ccc(cc4)Cl)F
Vismodegib,3.8,421.297,-2.53289332436,0.930835285083,0.704748213279,11.5761406099,-0.466780006431,-0.492119996052,0.371079992957,0.369684995909,-0.279009998881,-0.311579994659,CS(=O)(=O)c1ccc(c(c1)Cl)C(=O)Nc2ccc(c(c2)c3ccccn3)Cl
Voxelotor,7.67,337.379,5.14978236123,-6.73937588042,0.619674754387,17.4873613469,-0.4958100012,-0.640250027136,0.192269996698,0.600329995199,-0.252024999862,-0.420529991345,CC(C)n1c(ccn1)c2c(cccn2)COc3cccc(c3C=O)O
Warfarin,5.0,308.3279,1.14231237198,187.437243201,0.6112881582,15.5169544346,-0.486099985452,-0.55414998796,0.215030002384,0.567939994072,-0.199585002871,-0.189960005546,CC(=O)C[C@H](c1ccccc1)c2c(c3ccccc3oc2=O)O
Zolmitriptan,9.64,287.3568,1.82984749367,212.760173785,0.713862862959,11.822441474,-0.581160008397,-0.40639001206,0.0462250002172,-0.0115750006445,-0.234725003552,-0.224875003849,CN(C)CCc1c[nH]c2c1cc(cc2)C[C@H]3COC(=O)N3
Zonisamide,10.2,212.226,2.32573070481,-6.44882678008,0.718308908181,12.8076449302,-1.03366004721,-1.31278002067,1.46218002542,1.61600995259,-0.528143349248,-0.598846652146,c1ccc2c(c1)c(no2)CS(=O)(=O)N
SM01,9.53,217.073893212,2.96362099981,-4.61612199543,0.591538346699,18.2262639391,-0.49678000863,-0.794470012546,0.1067700008,0.546069979309,-0.14840000178,-0.301960006714,c1cc2c(cc1O)c3c(o2)C(=O)NCCC3
SM02,5.03,289.08268198,0.0127749950537,-2.40038867375,0.699293211601,10.5909371538,-0.767920016401,-0.872240006085,0.439729996867,0.688584984187,-0.412636003547,-0.659349999484,c1ccc2c(c1)c(ncn2)Nc3cccc(c3)C(F)(F)F
SM04,6.02,269.071975064,-1.11120111631,-0.431607460986,0.731682660624,11.3298397459,-0.878329990852,-0.899930000406,0.495080010545,0.669005006451,-0.524672504935,-0.688992500406,c1ccc2c(c1)c(ncn2)NCc3ccc(cc3)Cl
SM05,4.59,304.097855464,3.02355968559,6.08028331923,0.699470283701,11.0835388819,-0.446799992535,-0.507749974124,0.342030000922,0.347144991764,-0.188202000174,-0.213615999512,c1ccc(c(c1)NC(=O)c2ccc(o2)Cl)N3CCCCC3
SM06,3.03,327.00072404,-3.66397314183,-0.801182269922,0.693635556303,11.3298397459,-0.455320001797,-0.604449987961,0.355770003765,0.353349998043,-0.221172006087,-0.209337493955,c1cc2cccnc2c(c1)NC(=O)c3cc(cnc3)Br
SM07,6.08,235.110947416,-1.23816033563,1.90188291143,0.738536933709,9.85203456166,-0.877349974407,-0.685949984472,0.49560499023,0.434304979164,-0.524809995486,-0.478354990017,c1ccc(cc1)CNc2c3ccccc3ncn2
SM08,4.22,293.10519334,4.42200347687,331.640378356,0.713365427558,11.3298397459,-0.437869993718,-0.386500000488,0.396175006656,0.378099985886,-0.310904000075,-0.351354002487,Cc1ccc2c(c1)c(c(c(=O)[nH]2)CC(=O)O)c3ccccc3
SM11,3.89,211.085795288,1.82995998359,-7.84754924194,0.710738910148,11.5761406099,-0.966870010048,-0.780480025666,0.768779992908,0.678250016315,-0.658019989878,-0.701860009091,c1ccc(cc1)n2c3c(cn2)c(ncn3)N
SM13,5.77,295.132076784,1.14030419926,-1.55344132458,0.714564290408,11.5761406099,-0.762939989376,-0.600690006144,0.442685000789,0.434089996987,-0.426569998073,-0.420084001548,Cc1cccc(c1)Nc2c3cc(c(cc3ncn2)OC)OC
SM14,2.58,209.095297352,0.76573099075,3.53473298848,0.710349518982,10.8372380178,-0.811060010766,-0.729340016842,0.115010001386,0.192890003324,-0.151409997915,-0.278599999845,c1ccc(cc1)n2cnc3c2ccc(c3)N
SM15,4.7,210.07931294,3.02909996162,-2.86081819741,0.594339245977,17.979963075,-0.492049991511,-0.76605999738,0.116449997402,0.560909983814,-0.165260001444,-0.321949991286,c1ccc2c(c1)ncn2c3ccc(cc3)O
SM16,5.37,266.001368236,2.20716215383,2.64316593772,0.688782873438,12.068742338,-0.46178000927,-0.487329992543,0.397145005465,0.391289991249,-0.346975997686,-0.375899998362,c1cc(c(c(c1)Cl)C(=O)Nc2ccncc2)Cl
SM20,5.7,378.983669572,3.40126735502,181.563015108,0.690029000262,12.3150432021,-0.616429986273,-0.52631002555,0.709560005154,0.763294995927,-0.392507998858,-0.485986002557,c1cc(cc(c1)OCc2ccc(cc2Cl)Cl)/C=C/3\C(=O)NC(=O)S3
SM21,4.1,435.933448772,-5.99848525111,-3.08331230581,0.702450000553,8.86683110549,-0.734700024162,-0.837189973378,0.438234999742,0.645089997864,-0.410860002075,-0.663622492039,c1cc(cc(c1)Br)Nc2c(cnc(n2)Nc3cccc(c3)Br)F
SM22,2.4,396.84605978,0.846370869805,-7.13769924984,0.587995324869,17.979963075,-0.453060001471,-0.666840014459,0.164670005104,0.545319976806,0.135205000303,0.0335050025571,c1cc2c(cc(c(c2nc1)O)I)I
SM23,5.45,420.179755248,-0.69689353692,-0.573755362402,0.708844711236,8.62053024145,-0.753239988671,-0.863550006584,0.463500001146,0.680999980136,-0.477788000689,-0.617797990875,CCOC(=O)c1ccc(cc1)Nc2cc(nc(n2)Nc3ccc(cc3)C(=O)OCC)C
SM24,2.6,391.153206152,-0.255513274276,13.1959761949,0.72926130719,11.5761406099,-0.846669971906,-0.859579980887,0.474649995603,0.684279977762,-0.475515000485,-0.703889996327,COc1ccc(cc1)c2c3c(ncnc3oc2c4ccc(cc4)OC)NCCO
"1,3-Benzenediol",9.2,110.036779432,3.02911215344,-4.13166364154,0.586294845148,17.979963075,-0.494599999328,-0.799239991949,0.156409992437,0.568949998571,-0.217795000811,-0.3554950047,c1cc(cc(c1)O)O
"1,4-Benzenediol",10.9,110.036779432,1.02565096114,-3.89584778721,0.591783894484,17.979963075,-0.498389987009,-0.808520019628,0.0894400051662,0.5468400115,-0.148550001638,-0.325179994679,c1cc(ccc1O)O
2-Methylphenol,10.29,108.057514876,4.16214190407,-4.94502660189,0.592269464176,17.2410604829,-0.49895998952,-0.806270003536,0.122009998886,0.563120007298,-0.154415001394,-0.318369999745,Cc1ccccc1O
2-Methoxyphenol,9.98,124.052429496,0.833843283707,-7.06302049035,0.598346447301,17.733662211,-0.495469988269,-0.782379985088,0.112400001901,0.560140013462,-0.0506100011442,-0.238260001177,COc1ccccc1O
3-Methoxyphenol,9.65,124.052429496,3.04838827684,-4.21451068488,0.602012260739,18.2262639391,-0.496100009583,-0.799790020683,0.156019999481,0.568629984162,-0.239790001117,-0.353355001309,COc1cccc(c1)O
4-Methoxyphenol,10.21,124.052429496,2.79190251183,-4.36396243579,0.605353248728,18.4725648031,-0.498089999399,-0.810500025167,0.0900100018172,0.544550002203,-0.152390003643,-0.323229997768,COc1ccc(cc1)O
"4-Methyl-1,2-benzenediol",9.55,124.052429496,3.529036738,4.19247480258,0.596172200006,16.9947596189,-0.495029985905,-0.822899998141,0.114160001278,0.521539985227,-0.0510350000113,-0.209759999973,Cc1ccc(c(c1)O)O
2-Ethylphenol,10.2,122.07316494,3.4368088537,-6.26380280941,0.590988126833,17.4873613469,-0.498079985674,-0.80641001494,0.124829999808,0.563690006422,-0.155135002281,-0.317609995914,CCc1ccccc1O
3-Ethylphenol,9.9,122.07316494,3.00037611853,-5.19835457686,0.58924373728,17.979963075,-0.49862000405,-0.812150000905,0.124959997245,0.552999973918,-0.187025003723,-0.333664997791,CCc1cccc(c1)O
4-Ethylphenol,10.0,122.07316494,2.86676244807,-3.81096798358,0.601713122907,17.979963075,-0.498490003967,-0.80541002559,0.119880000031,0.555949987895,-0.183050004863,-0.339740006201,CCc1ccc(cc1)O
2-Propylphenol,10.47,136.088815004,3.43430041757,-6.72093240864,0.584117477947,16.2558570267,-0.498299986971,-0.804489972602,0.125469996679,0.562420008172,-0.15627500127,-0.319810005437,CCCc1ccccc1O
4-Propylphenol,10.34,136.088815004,2.87412180731,-5.66448763833,0.579718219159,17.733662211,-0.498869985173,-0.804340004211,0.120569996705,0.556070030445,-0.183520003984,-0.33970001269,CCCc1ccc(cc1)O
Hexanoic acid,4.87,116.083729624,2.26966945242,310.641542662,0.576499371405,15.5169544346,-0.614180026762,-0.853990016995,0.633430005796,0.906790019454,-0.337935006432,-0.52456500989,CCCCCC(=O)O
Heptanoic acid,4.89,130.099379688,2.26952462403,310.923210645,0.586646594416,17.2410604829,-0.612919987382,-0.853860018182,0.633629976569,0.906369986605,-0.338149995746,-0.52440000825,CCCCCCC(=O)O
Nonanoic acid,4.96,158.130679816,2.15274898636,300.47372366,0.571739679664,17.2410604829,-0.61282998529,-0.853980003657,0.633570013375,0.905049980818,-0.338529991179,-0.524775004746,CCCCCCCCC(=O)O
"2,2-Dimethylpropanoic acid",4.78,102.06807956,-2.16904097113,312.46323492,0.577814251247,14.7780518425,-0.608609975699,-0.84554999962,0.638999997255,0.920289994334,-0.318805006716,-0.514315000619,CC(C)(C)C(=O)O
2-Methylbutanoic acid,4.8,102.06807956,1.66970421251,305.858018946,0.58206919121,15.5169544346,-0.611320015262,-0.849380014231,0.638719979454,0.914240004728,-0.328200005214,-0.519465004792,CC[C@H](C)C(=O)O
4-Methylpentanoic acid,4.84,116.083729624,2.01117323588,302.295298824,0.578507099236,14.5317509784,-0.616020021029,-0.854279995945,0.634459975176,0.907310008022,-0.337410000153,-0.525254995611,CC(C)CCC(=O)O
Phenylethanoic acid,4.31,136.052429496,2.12450491443,287.219296272,0.569028458945,17.2410604829,-0.619159995682,-0.835460008314,0.634159983032,0.92184001095,-0.306844989873,-0.509585001698,c1ccc(cc1)CC(=O)O
2-Phenylbutyric acid,4.66,164.083729624,3.14475828146,296.028005127,0.576289377552,17.2410604829,-0.613730012594,-0.831579984925,0.637489975275,0.925930021503,-0.296769998192,-0.499889993868,CC[C@@H](c1ccccc1)C(=O)O
2-Methyl-benzoic acid,3.91,136.052429496,5.48216954446,293.128934478,0.573035019782,14.0391492504,-0.600950002463,-0.828279976897,0.651960015504,0.907840008683,-0.33224500695,-0.458404989146,Cc1ccccc1C(=O)O
3-Methyl-benzoic acid,4.25,136.052429496,2.57495441866,295.779377962,0.572813499114,16.7484587548,-0.608789980412,-0.833809977397,0.651610016823,0.906930023804,-0.343405015767,-0.478889992461,Cc1cccc(c1)C(=O)O
4-Methyl-benzoic acid,4.37,136.052429496,2.5879051234,287.904267648,0.574766415087,16.2558570267,-0.608500001952,-0.833989980357,0.652239980176,0.906329986913,-0.350334992632,-0.479664991336,Cc1ccc(cc1)C(=O)O
2-Phenylbenzoic acid,3.46,198.06807956,0.654834736031,291.122570812,0.574619878153,16.2558570267,-0.602949976325,-0.821609976745,0.653479993939,0.911379990124,-0.3192900078,-0.447279988832,c1ccc(cc1)c2ccccc2C(=O)O
trans-m-Methylcinnamic acid,4.44,162.06807956,1.35996791237,289.457335039,0.571548869977,16.5021578908,-0.606869997076,-0.833949986043,0.636250017592,0.886470016894,-0.389059999577,-0.495709995868,Cc1cccc(c1)/C=C/C(=O)O
trans-o-Methylcinnamic acid,4.5,162.06807956,1.96598072788,294.388381663,0.586336500652,17.4873613469,-0.604149999182,-0.836049974963,0.633140025576,0.887489973501,-0.386189999144,-0.50240498881,Cc1ccccc1/C=C/C(=O)O
trans-p-Methylcinnamic acid,4.56,162.06807956,1.34949538643,283.758205661,0.575745339217,15.7632552987,-0.605470001063,-0.833729981811,0.634590030351,0.886479974358,-0.391450002155,-0.495629988045,Cc1ccc(cc1)/C=C/C(=O)O
3-Hydroxy-benzoic acid,4.8,138.031694052,2.82784496369,285.111666629,0.5991223676,16.5021578908,-0.491019990295,-0.82933002313,0.108850006014,0.906759981314,-0.138289995492,-0.464095011105,c1cc(cc(c1)O)C(=O)O
4-hydroxy-benzoic acid,4.58,138.031694052,2.46201173631,293.404117172,0.586844143848,16.2558570267,-0.614660024643,-0.834909974535,0.656520009041,0.908219994108,-0.365705005825,-0.493769987424,c1cc(ccc1C(=O)O)O
Ethanedioic acid,1.25,89.995308544,-0.0342232125414,1007.67431089,0.57436648468,17.4873613469,-0.568539984524,-0.616289981774,0.594810001552,0.499350002834,0.0559900030494,0.144024989435,C(=O)(C(=O)O)O
3-Methylpentanedioic acid,4.24,146.0579088,10.9179508626,955.577280661,0.574354456855,17.2410604829,-0.612820030563,-0.538619996098,0.637340007909,0.637310027096,-0.336814985983,-0.381475006279,CC(CC(=O)O)CC(=O)O
Hexanedioic acid,4.34,146.0579088,11.9459622576,885.295491571,0.577847198374,14.5317509784,-0.609570024535,-0.849550009754,0.63385999389,0.906989990685,-0.337554985657,-0.523005002227,C(CCC(=O)O)CC(=O)O
Octanedioic acid,4.52,174.089208928,17.5042867143,849.089766817,0.572861850362,15.0243527065,-0.612969994545,-0.85219997257,0.634840011597,0.906530021727,-0.338569998741,-0.52408998549,C(CCCC(=O)O)CCC(=O)O
Decanedioic acid,4.59,202.120509056,19.8455869169,804.596148847,0.562588661878,17.733662211,-0.613640009658,-0.853129982107,0.634549976094,0.906210006125,-0.337439990835,-0.524774990135,C(CCCCC(=O)O)CCCC(=O)O
Undecanedioic acid,4.65,216.13615912,5.69616951288,846.929949243,0.583345222643,15.0243527065,-0.614510003584,-0.553669988013,0.634630020601,0.634419978761,-0.336864989357,-0.371119989849,C(CCCCC(=O)O)CCCCC(=O)O
Dodecanedioic acid,4.65,230.151809184,20.1718068714,825.928860366,0.57202000213,15.5169544346,-0.614080011649,-0.853269992749,0.635039985376,0.906669975837,-0.338174991114,-0.524544997493,C(CCCCCC(=O)O)CCCCC(=O)O
Tridecanedioic acid,4.65,244.167459248,-6.79815820789,787.046412023,0.584940405212,15.5169544346,-0.615390003454,-0.551919995155,0.635330020654,0.634119989071,-0.337620013189,-0.371310001519,C(CCCCCC(=O)O)CCCCCC(=O)O
Chloroacetic acid,2.87,93.982157016,2.23617031771,308.961997368,0.587954575473,16.9947596189,-0.611739991233,-0.82908999707,0.624849976972,0.911949994309,-0.272919999436,-0.44192999761,C(C(=O)O)Cl
Trichloroacetic acid,0.66,161.904212312,-0.154961560005,268.306769289,0.582953851853,17.979963075,-0.576059997082,-0.762289996658,0.625299990177,0.948059980358,-0.147944994271,-0.284934993301,C(=O)(C(Cl)(Cl)Cl)O
2-Chloropropanoic acid,2.83,107.99780708,2.89791942751,301.137000598,0.581087535897,16.7484587548,-0.610599993876,-0.824679973908,0.629729986974,0.918609973602,-0.256485003777,-0.431299987622,C[C@@H](C(=O)O)Cl
3-Chloropropanoic acid,3.98,107.99780708,1.50301605154,292.30637662,0.575561898954,17.4873613469,-0.608929996125,-0.842899983376,0.63709002293,0.917230004817,-0.343214993111,-0.529874993116,C(CCl)C(=O)O
2-Chlorobutanoic acid,2.86,122.013457144,2.46240731009,291.183892422,0.588986947994,17.2410604829,-0.609990000658,-0.824949983937,0.631540000505,0.919030006545,-0.258335002166,-0.431734994484,CC[C@@H](C(=O)O)Cl
3-Chlorobutanoic acid,4.05,122.013457144,0.703574209823,297.346465284,0.586125411726,17.733662211,-0.609309972929,-0.841750020878,0.637380002333,0.910550003155,-0.344475010144,-0.527760009066,C[C@@H](CC(=O)O)Cl
4-Chlorobutanoic acid,4.52,122.013457144,0.576472814748,304.41637966,0.596020145641,14.5317509784,-0.612049997917,-0.847119989017,0.638050018677,0.903469977757,-0.3405500065,-0.52398999236,C(CC(=O)O)CCl
2-Chlorobenzoic acid,2.9,155.99780708,2.4920829733,290.085970499,0.56982550584,16.5021578908,-0.603280005852,-0.816489994526,0.652920009693,0.916019976139,-0.319310003767,-0.450204998255,c1ccc(c(c1)C(=O)O)Cl
3-Chlorobenzoic acid,3.84,155.99780708,2.57028893472,274.471227728,0.572605629901,16.7484587548,-0.607770023681,-0.827380001977,0.651239993237,0.908280014559,-0.33683500234,-0.473995000556,c1cc(cc(c1)Cl)C(=O)O
3-Bromopropanoic acid,4.0,151.9472915,1.5275798598,291.804627255,0.588234774467,17.979963075,-0.609860002825,-0.841419994831,0.635540008714,0.916249990463,-0.337350010703,-0.525009997189,C(CBr)C(=O)O
2-Bromobenzoic acid,2.85,199.9472915,2.4137223884,280.521990327,0.572230226897,16.7484587548,-0.601149977992,-0.81340998481,0.648109970738,0.914179980056,-0.306164996574,-0.439664994134,c1ccc(c(c1)C(=O)O)Br
3-Bromobenzoic acid,3.81,199.9472915,2.57574704371,282.699449032,0.586716932265,16.9947596189,-0.609070003529,-0.826719998781,0.651369988422,0.908919990595,-0.340654992064,-0.476989998881,c1cc(cc(c1)Br)C(=O)O
4-Bromobenzoic acid,3.96,199.9472915,4.30024868636,281.301284971,0.583251205409,16.5021578908,-0.607089994817,-0.827090022021,0.649699987502,0.905629995412,-0.337094998329,-0.468590010756,c1cc(ccc1C(=O)O)Br
Fluoroacetic acid,2.59,78.011707556,0.00655876914213,293.376318183,0.581639499774,17.2410604829,-0.608340018429,-0.833439999127,0.596409983002,0.897889978385,-0.196390000172,-0.403424995818,C(C(=O)O)F
Trifluoroacetic acid,0.52,113.992863932,-0.436374603003,261.351372415,0.584903270724,17.733662211,-0.564419994131,-0.765339979104,0.595300009474,0.943159988948,0.06735499762,-0.161409997514,C(=O)(C(F)(F)F)O
2-Fluorobenzoic acid,3.27,140.02735762,1.82983138637,278.393509577,0.585355515287,16.9947596189,-0.612569989016,-0.822170015424,0.652930020044,0.911239985377,-0.354395010819,-0.489725004882,c1ccc(c(c1)C(=O)O)F
3-Fluorobenzoic acid,3.86,140.02735762,2.57130187543,267.428988708,0.571785883229,16.7484587548,-0.607429983715,-0.827409984278,0.650279996296,0.906910000635,-0.327549989025,-0.466714994716,c1cc(cc(c1)F)C(=O)O