Name,pKa,Weight,∆H,∆G_solv,Bond Order,SASA,smiles
Lovastatin,13.49,404.5396,6.46991143203,-4.07103786077,0.603906889399,11.0835388819,CC[C@H](C)C(=O)O[C@H]1C[C@H](C=C2[C@H]1[C@H]([C@H](C=C2)C)CC[C@@H]3C[C@H](CC(=O)O3)O)C
Oxcarbazepine,13.73,252.268,1.51309994131,-2.21347826724,0.714828263075,8.86683110549,c1ccc2c(c1)CC(=O)c3ccccc3N2C(=O)N
Fluocinolone acetonide,13.9,452.4882,3.73998449933,7.86345319185,0.606602126146,12.8076449302,C[C@]12C[C@@H]([C@]3([C@H]([C@@H]1C[C@@H]4[C@]2(OC(O4)(C)C)C(=O)CO)C[C@@H](C5=CC(=O)C=C[C@@]53C)F)F)O