Name,pKa,Weight,∆H,∆G_solv,Bond Order,SASA,smiles
Urea,0.1,60.0553,-0.937118854819,1.62920275856,0.700332334268,11.0835388819,C(=O)(N)N
Trifluoroacetic acid,0.52,113.992863932,-0.436374603003,261.351372415,0.584903270724,17.733662211,C(=O)(C(F)(F)F)O
Acetamide,0.63,59.0672,4.39583695899,-0.356219705151,0.713410280703,10.8372380178,CC(=O)N
Trichloroacetic acid,0.66,161.904212312,-0.154961560005,268.306769289,0.582953851853,17.979963075,C(=O)(C(Cl)(Cl)Cl)O
b'pyridine-2-carboxylic acid',0.99,123.0320284,1.6154935563,304.69972185,0.593253475991,16.5021578908,c1ccnc(c1)C(=O)O
Cyanamide,1.03,42.04,1.92160191356,-3.67624156198,0.702910297569,11.0835388819,C(#N)N
Phenylalanine,1.24,165.1891,-2.50790619172,178.973192687,0.57989136008,13.7928483863,c1ccc(cc1)C[C@@H](C(=O)O)N
Ethanedioic acid,1.25,89.995308544,-0.0342232125414,1007.67431089,0.57436648468,17.4873613469,C(=O)(C(=O)O)O
Dichloroacetic acid,1.26,128.942,2.90346625719,275.150778572,0.580264242933,16.7484587548,C(C(=O)O)(Cl)Cl
Taurine,1.5,125.147,6.39571864174,186.612132915,0.596121331467,18.2262639391,C(CS(=O)(=O)O)N
Cetirizine,1.52,388.888,14.787995745,234.739905395,0.586635798176,17.733662211,c1ccc(cc1)[C@H](c2ccc(cc2)Cl)N3CCN(CC3)CCOCC(=O)O
Pentafluorobenzoic acid,1.75,211.989670372,1.82029583526,260.275854817,0.576690768943,17.4873613469,c1(c(c(c(c(c1F)F)F)F)F)C(=O)O
Fluconazole,1.76,306.2708,0.758859758038,2.21504467522,0.599972598855,14.7780518425,c1cc(c(cc1F)F)C(Cn2cncn2)(Cn3cncn3)O
b'pyridine-4-carboxylic acid',1.77,123.0320284,4.37160695915,277.274685,0.573052758922,16.9947596189,c1cnccc1C(=O)O
Tedizolid,1.8,370.344,1.41938864094,3.85762155632,0.614304031844,17.2410604829,Cn1nc(nn1)c2ccc(cn2)c3ccc(cc3F)N4C[C@@H](OC4=O)CO
Isoniazid,1.82,137.1393,0.938496506419,4.36447395686,0.724213353332,11.5761406099,c1cnccc1C(=O)NN
Maleic Acid,1.83,116.0722,5.4713851438,970.73558396,0.583077420129,17.2410604829,C(=C\C(=O)O)\C(=O)O
nan,2.0,427.15076154,2.79344326809,-2.23841861267,0.610492216013,17.979963075,c1cc(ccc1CN2[C@H]([C@@H]3[C@@H]([N@@]4CC(C[C@H]4[C@@H]3C2=O)(F)F)c5ccc(cc5)C#N)O)F
nan,2.0,429.166411604,2.44274063207,-3.90939422778,0.614507617087,17.979963075,c1cc(ccc1CN2[C@H]([C@H]3[C@@H](C2=O)[C@@H]4C(CC[N@]4[C@H]3[C@H]5CC=C(C=C5)C#N)(F)F)O)F
nan,2.0,442.161660572,0.0934398430179,179.96193889,0.704701608196,8.86683110549,c1cc(ccc1CN2C(=O)[C@@H]3[C@@H]([N@@]4CCC([C@@H]4[C@@H]3C2=O)(F)F)c5ccc(cc5)C(=N)N)F
nan,2.0,442.161660572,1.58522567638,180.210658486,0.706993395885,9.11313196953,c1cc(ccc1CN2C(=O)[C@H]3[C@H]4CC(C[N@@]4[C@H]([C@H]3C2=O)c5ccc(cc5)C(=N)N)(F)F)F
"N,N-dimethylglycine",2.04,103.1198,3.77840335992,154.595579043,0.568357210559,15.5169544346,CN(C)CC(=O)O
Dexrazoxane,2.1,268.2691,0.963014581317,244.495894495,0.707868944626,12.5613440661,C[C@@H](CN1CC(=O)NC(=O)C1)N2CC(=O)NC(=O)C2
Tazobactam,2.1,300.291,0.493259786872,244.934254121,0.579713367597,17.733662211,C[C@@]1([C@@H](N2[C@H](S1(=O)=O)CC2=O)C(=O)O)Cn3ccnn3
Cefapirin,2.15,423.463,6.92381535943,262.335081378,0.721558119433,12.3150432021,CC(=O)OCC1=C(N2[C@@H]([C@@H](C2=O)NC(=O)CSc3ccncc3)SC1)C(=O)O
Ranolazine,2.2,427.5365,5.54792233124,180.964888252,0.595782199489,15.2706535706,Cc1cccc(c1NC(=O)CN2CCN(CC2)C[C@H](COc3ccccc3OC)O)C
Methionine,2.28,149.211,-0.780839293661,167.50348355,0.584454506259,13.7928483863,CSCC[C@@H](C(=O)O)N
Valine,2.3,117.1463,-0.294535639694,159.507000628,0.572845079017,15.7632552987,CC(C)[C@@H](C(=O)O)N
Clopyralid,2.32,190.954083696,1.86282790989,279.052478066,0.573741452608,17.4873613469,c1cc(nc(c1Cl)C(=O)O)Cl
Alanine,2.34,89.0932,-0.136098682051,176.859261354,0.581244287158,14.5317509784,C[C@@H](C(=O)O)N
Leucine,2.35,131.1729,-0.452844164684,166.830947494,0.576380789652,17.2410604829,CC(C)C[C@@H](C(=O)O)N
Glycine,2.37,75.0666,-0.833816724857,197.834066487,0.574051937683,16.9947596189,C(C(=O)O)N
Aminobenzoic acid,2.38,137.136,0.800458956519,282.896948701,0.574030687858,15.7632552987,c1cc(ccc1C(=O)O)N
SM22,2.4,396.84605978,0.846370869805,-7.13769924984,0.587995324869,17.979963075,c1cc2c(cc(c(c2nc1)O)I)I
Dapsone,2.41,248.301,2.5307118212,3.66597418201,0.710666387727,10.8372380178,c1cc(ccc1N)S(=O)(=O)c2ccc(cc2)N
Quinolinic Acid,2.43,167.1189,5.65588285181,916.415950331,0.586641599026,15.2706535706,c1cc(c(nc1)C(=O)O)C(=O)O
Pyruvic acid,2.45,88.0621,2.80896103587,289.743388995,0.573249240578,17.733662211,CC(=O)C(=O)O
Butamben,2.472,193.246,0.881637654334,-1.00356656227,0.708210027491,10.5909371538,CCCCOC(=O)c1ccc(cc1)N
Pyrazole,2.48,68.0773,1.73200564201,-6.39072087996,0.721149527259,12.3150432021,c1c[nH]nc1
nan,2.5,216.053492116,1.67053415046,271.269781603,0.590124291455,18.2262639391,c1ccc(cc1)c2cc(nc(n2)O)C(=O)O
Benzocaine,2.51,165.1891,0.880338221318,-3.66493154014,0.709932392033,10.8372380178,CCOC(=O)c1ccc(cc1)N
Metronidazole,2.57,171.154,1.41798415854,-5.58451742059,0.608492630369,15.7632552987,Cc1ncc(n1CCO)[N+](=O)[O-]
SM14,2.58,209.095297352,0.76573099075,3.53473298848,0.710349518982,10.8372380178,c1ccc(cc1)n2cnc3c2ccc(c3)N
Fluoroacetic acid,2.59,78.011707556,0.00655876914213,293.376318183,0.581639499774,17.2410604829,C(C(=O)O)F
Acemetacin,2.6,415.83,3.89820881262,294.402388085,0.584665935004,14.0391492504,Cc1c(c2cc(ccc2n1C(=O)c3ccc(cc3)Cl)OC)CC(=O)OCC(=O)O
SM24,2.6,391.153206152,-0.255513274276,13.1959761949,0.72926130719,11.5761406099,COc1ccc(cc1)c2c3c(ncnc3oc2c4ccc(cc4)OC)NCCO
Cycloleucine,2.62,129.157,-0.272625250429,167.275663377,0.580644371752,15.5169544346,C1CCC(C1)(C(=O)O)N
"2,4-dichlorophenoxyacetic acid",2.64,219.969399412,3.53890795935,273.662401537,0.578142038522,17.979963075,c1cc(c(cc1Cl)Cl)OCC(=O)O
Emtricitabine,2.65,247.247,1.99725148197,11.7165791827,0.57654143231,16.2558570267,c1c(c(nc(=O)n1[C@@H]2CS[C@@H](O2)CO)N)F
Clavulanic acid,2.7,199.1608,2.56787619344,274.53186034,0.605544181587,17.4873613469,C1[C@@H]2N(C1=O)[C@H](/C(=C/CO)/O2)C(=O)O
Oxacillin,2.72,401.436,0.839528236993,291.180084405,0.72550940064,9.60573369762,Cc1c(c(no1)c2ccccc2)C(=O)N[C@H]3[C@@H]4N(C3=O)[C@H](C(S4)(C)C)C(=O)O
1-Aminocyclopropanecarboxylic Acid,2.73,101.1039,2.13586139852,174.32140838,0.584528224724,16.0095561627,C1CC1(C(=O)O)N
Benzylpenicillin,2.74,334.39,-1.24176914388,271.237300762,0.7244842715,11.822441474,CC1([C@@H](N2[C@H](S1)[C@@H](C2=O)NC(=O)Cc3ccccc3)C(=O)O)C
Phthalic Acid,2.76,166.1308,5.62323364055,902.170488665,0.574639746634,16.0095561627,c1ccc(c(c1)C(=O)O)C(=O)O
Meticillin,2.77,380.415,4.01937825023,264.609462638,0.730340392233,11.0835388819,CC1([C@@H](N2[C@H](S1)[C@@H](C2=O)NC(=O)c3c(cccc3OC)OC)C(=O)O)C
Cloxacillin,2.78,435.881,1.05581492265,256.002607312,0.723992596379,12.068742338,Cc1c(c(no1)c2ccccc2Cl)C(=O)N[C@H]3[C@@H]4N(C3=O)[C@H](C(S4)(C)C)C(=O)O
Phenoxymethylpenicillin,2.79,350.39,5.78470330492,276.576483371,0.720119129004,11.822441474,CC1([C@@H](N2[C@H](S1)[C@@H](C2=O)NC(=O)COc3ccccc3)C(=O)O)C
Quinapril,2.8,438.5161,5.87818358277,119.813811347,0.727835932686,7.63532678528,CCOC(=O)[C@H](CCc1ccccc1)N[C@@H](C)C(=O)N2Cc3ccccc3C[C@H]2C(=O)O
2-Chloropropanoic acid,2.83,107.99780708,2.89791942751,301.137000598,0.581087535897,16.7484587548,C[C@@H](C(=O)O)Cl
Malonic acid,2.85,104.0615,0.355347180765,962.057272712,0.577762880308,16.7484587548,C(C(=O)O)C(=O)O
2-Bromobenzoic acid,2.85,199.9472915,2.4137223884,280.521990327,0.572230226897,16.7484587548,c1ccc(c(c1)C(=O)O)Br
2-Chlorobutanoic acid,2.86,122.013457144,2.46240731009,291.183892422,0.588986947994,17.2410604829,CC[C@@H](C(=O)O)Cl
Chloroacetic acid,2.87,93.982157016,2.23617031771,308.961997368,0.587954575473,16.9947596189,C(C(=O)O)Cl
2-Bromoacetyl Group,2.89,138.948,3.0657400283,298.406226593,0.571885850431,17.4873613469,C(C(=O)O)Br
2-Chlorobenzoic acid,2.9,155.99780708,2.4920829733,290.085970499,0.56982550584,16.5021578908,c1ccc(c(c1)C(=O)O)Cl
"b'2-(5-Phenyl-1,3-oxazol-2-yl)benzoic acid'",2.9,265.073893212,2.90772762765,262.760735692,0.58728172536,15.0243527065,c1ccc(cc1)c2cnc(o2)c3ccccc3C(=O)O
Salicylic acid,2.97,138.1207,3.8436367828,299.089637799,0.584611741072,14.7780518425,c1ccc(c(c1)C(=O)O)O
Fumaric Acid,3.03,116.0722,-0.446414751735,902.333811861,0.573349086937,17.2410604829,C(=C/C(=O)O)\C(=O)O
SM06,3.03,327.00072404,-3.66397314183,-0.801182269922,0.693635556303,11.3298397459,c1cc2cccnc2c(c1)NC(=O)c3cc(cnc3)Br
nan,3.1,409.160183352,3.67119831771,198.988832342,0.615351700562,16.5021578908,c1cc(ccc1CN2[C@H]([C@@H]3[C@@H]([N@@]4C[C@H](C[C@H]4[C@@H]3C2=O)F)c5ccc(cc5)C#N)O)F
Methylmalonic Acid,3.12,118.088,3.49553617136,954.447558576,0.574084082481,17.2410604829,CC(C(=O)O)C(=O)O
2-Fluoroaniline,3.2,111.1169,0.98489943917,-0.164341711584,0.715221407849,9.60573369762,c1ccc(c(c1)N)F
Proparacaine,3.2,294.3892,0.792515542203,183.437019298,0.713172161665,10.5909371538,CCCOc1ccc(cc1N)C(=O)OCCN(CC)CC
nan,3.2,466.201633564,0.70169739949,558.040015187,0.701640405296,8.62053024145,COC1(C[C@@H]2[C@H]3[C@@H]([C@@H]([N@]2C1)c4ccc(cc4)C(=N)N)C(=O)N(C3=O)Cc5ccc(cc5)F)OC
mecoprop,3.21,214.039671892,-1.7253039791,277.616539788,0.570261794622,17.4873613469,Cc1cc(ccc1O[C@H](C)C(=O)O)Cl
Flucytosine,3.26,129.0925,2.24678805061,-2.10444867686,0.70042112755,11.0835388819,c1c(c([nH]c(=O)n1)N)F
2-Fluorobenzoic acid,3.27,140.02735762,1.82983138637,278.393509577,0.585355515287,16.9947596189,c1ccc(c(c1)C(=O)O)F
Glyoxylic acid,3.3,74.0355,2.56984213006,291.892364151,0.57371213848,17.4873613469,C(=O)C(=O)O
nan,3.3,411.175833416,2.45112366204,199.914928259,0.59320038108,17.733662211,c1cc(ccc1CN2[C@H]([C@H]3[C@@H](C2=O)[C@@H]4[C@H](CC[N@@]4[C@H]3[C@H]5CC=C(C=C5)C#N)F)O)F
nan,3.3,411.175833416,2.64818436984,202.267958925,0.595906852402,17.733662211,c1cc(ccc1CN2[C@H]([C@H]3[C@@H](C2=O)[C@@H]4[C@@H](CC[N@@]4[C@H]3[C@H]5CC=C(C=C5)C#N)F)O)F
nan,3.3,424.171082384,-0.000882440984027,596.741572884,0.712941822513,8.62053024145,c1cc(ccc1CN2C(=O)[C@@H]3[C@@H]([N@@]4CC[C@@H]([C@@H]4[C@@H]3C2=O)F)c5ccc(cc5)C(=N)N)F
nan,3.3,424.171082384,1.15093564997,608.770550692,0.705367008278,8.86683110549,c1cc(ccc1CN2C(=O)[C@H]3[C@H]4C[C@H](C[N@@]4[C@H]([C@H]3C2=O)c5ccc(cc5)C(=N)N)F)F
nan,3.3,424.171082384,0.517196211351,580.253480936,0.711237677605,9.11313196953,c1cc(ccc1CN2C(=O)[C@H]3[C@H]4C[C@@H](C[N@@]4[C@H]([C@H]3C2=O)c5ccc(cc5)C(=N)N)F)F
nan,3.3,466.201633564,-9.73640981792,543.389008647,0.704963738815,9.11313196953,COC1(CC[N@]2[C@H]1[C@H]3[C@@H]([C@@H]2c4ccc(cc4)C(=N)N)C(=O)N(C3=O)Cc5ccc(cc5)F)OC
"b'5-(2,4-difluorophenyl)-2-hydroxybenzoic acid'",3.3,250.044150556,4.4739022822,273.35819957,0.578171755853,16.2558570267,c1cc(c(cc1c2ccc(cc2F)F)C(=O)O)O
"b'(1R,2S)-2-(benzoylamino)cyclohexane-1-carboxylic acid'",3.3,247.120843404,3.15667407566,300.789806889,0.720694901142,9.35943283357,c1ccc(cc1)C(=O)N[C@H]2CCCC[C@H]2C(=O)O
Nicotinamide,3.35,122.1246,2.04302643253,1.23039610573,0.704775328623,9.35943283357,c1cc(cnc1)C(=O)N
Probenecid,3.4,285.359,2.95777164873,263.055094737,0.592391464975,15.7632552987,CCCN(CCC)S(=O)(=O)c1ccc(cc1)C(=O)O
nan,3.4,424.171082384,3.88977564964,617.826085624,0.706070175446,8.37422937741,c1cc(ccc1CN2C(=O)[C@@H]3[C@@H]([N@@]4CC[C@H]([C@@H]4[C@@H]3C2=O)F)c5ccc(cc5)C(=N)N)F
(S)-Mandelic acid,3.41,152.1473,3.34692055304,274.620064086,0.585942679176,17.2410604829,c1ccc(cc1)[C@@H](C(=O)O)O
2-Phenylbenzoic acid,3.46,198.06807956,0.654834736031,291.122570812,0.574619878153,16.2558570267,c1ccc(cc1)c2ccccc2C(=O)O
"b'5-(benzoyl)-2,3-dihydro-1H-pyrrolizine-1-carboxylic acid'",3.49,255.089543276,3.99714783715,278.063925441,0.573169313095,16.2558570267,c1ccc(cc1)C(=O)c2ccc3n2CC[C@H]3C(=O)O
Acetylsalicylic acid,3.5,180.1574,3.57030731257,279.023317509,0.589618565948,16.5021578908,CC(=O)Oc1ccccc1C(=O)O
Deferiprone,3.5,139.1519,1.28002011515,259.966922554,0.605272946707,17.2410604829,Cc1c(c(=O)ccn1C)O
Etacrynic acid,3.5,303.138,6.75727871514,273.006650494,0.595249361471,17.979963075,CCC(=C)C(=O)c1ccc(c(c1Cl)Cl)OCC(=O)O
Tolmetin,3.5,257.2845,3.39905967612,299.108557937,0.573284503254,16.0095561627,Cc1ccc(cc1)C(=O)c2ccc(n2C)CC(=O)O
b'(2-butanoyloxy-4-hydroxy-4-oxobutyl)-trimethylazanium',3.56,232.154334604,9.13642490553,-6.83451062744,0.577374546764,13.7928483863,CCCC(=O)O[C@H](CC(=O)O)C[N+](C)(C)C
nan,3.6,436.19106888,2.18257389643,569.604069259,0.710528415923,9.11313196953,CO[C@@H]1C[C@@H]2[C@H]3[C@@H]([C@@H]([N@]2C1)c4ccc(cc4)C(=N)N)C(=O)N(C3=O)Cc5ccc(cc5)F
b'(2-acetyloxy-4-hydroxy-4-oxobutyl)-trimethylazanium',3.6,204.123034476,8.24956986255,-5.09429018262,0.597044343517,15.5169544346,CC(=O)O[C@H](CC(=O)O)C[N+](C)(C)C
b'(4-hydroxy-2-octanoyloxy-4-oxobutyl)-trimethylazanium',3.6,288.21693486,7.63438547285,-8.4808947085,0.591205916252,14.2854501144,CCCCCCCC(=O)O[C@H](CC(=O)O)C[N+](C)(C)C
beta-Alanine,3.63,89.0932,-1.28626416405,245.932882502,0.704499124338,10.5909371538,C(CN)C(=O)O
b'(2-decanoyloxy-4-hydroxy-4-oxobutyl)-trimethylazanium',3.65,316.248234988,7.87083096973,4.37115212803,0.575225861856,15.0243527065,CCCCCCCCCC(=O)O[C@H](CC(=O)O)C[N+](C)(C)C
Gabapentin,3.7,171.2368,5.48138317999,148.522421203,0.580528689742,16.0095561627,C1CCC(CC1)(CC(=O)O)CN
nan,3.7,405.14886972,3.0482936292,190.928775228,0.597264626489,17.2410604829,c1cc(ccc1CN2C(=O)[C@H]3[C@@H]4C[C@H](C[N@]4[C@H]([C@H]3C2=O)c5ccc(cc5)C#N)O)F
nan,3.7,436.19106888,0.674028378176,560.149470797,0.711959400469,9.35943283357,CO[C@@H]1CC[N@]2[C@H]1[C@H]3[C@@H]([C@@H]2c4ccc(cc4)C(=N)N)C(=O)N(C3=O)Cc5ccc(cc5)F
nan,3.7,436.19106888,0.437966554738,554.552234677,0.708511466537,8.12792851337,CO[C@H]1C[C@@H]2[C@H]3[C@@H]([C@@H]([N@]2C1)c4ccc(cc4)C(=N)N)C(=O)N(C3=O)Cc5ccc(cc5)F
"b'4-[(3aS,4R,8aS,8bR)-2-[(4-fluorophenyl)methyl]-1,3-dioxo-4,6,7,8,8a,8b-hexahydro-3aH-pyrrolo[3,4-a]pyrrolizin-4-yl]-2,3-difluorobenzenecarboximidamide'",3.7,442.161660572,1.24429526476,593.744815623,0.696073748589,9.35943283357,c1cc(ccc1CN2C(=O)[C@H]3[C@@H]4CCC[N@]4[C@H]([C@H]3C2=O)c5ccc(c(c5F)F)C(=N)N)F
"b'4-[(3aS,4R,8aS,8bR)-2-[(4-fluorophenyl)methyl]-1,3-dioxo-4,6,7,8,8a,8b-hexahydro-3aH-pyrrolo[3,4-a]pyrrolizin-4-yl]-2,6-difluorobenzenecarboximidamide'",3.7,442.161660572,-3.86580842706,572.185821335,0.708374499777,9.60573369762,c1cc(ccc1CN2C(=O)[C@H]3[C@@H]4CCC[N@]4[C@H]([C@H]3C2=O)c5cc(c(c(c5)F)C(=N)N)F)F
flamprop,3.73,321.056799176,3.56727644265,261.22740834,0.579854139222,17.4873613469,C[C@H](C(=O)O)N(c1ccc(c(c1)Cl)F)C(=O)c2ccccc2
Ibrutinib,3.74,440.507,1.67757876075,-11.6304463944,0.703232058859,10.5909371538,C=CC(=O)N1CCC[C@H](C1)n2c3c(c(n2)c4ccc(cc4)Oc5ccccc5)c(ncn3)N
Formic acid,3.75,46.0254,3.42740695049,329.748042927,0.5870450753,17.733662211,C(=O)O
b'2-ethoxy-4-[2-[[3-methyl-1-(2-piperidin-1-ylphenyl)butyl]amino]-2-oxoethyl]benzoic acid',3.75,452.267507632,7.36582455393,298.756820122,0.591908278701,16.2558570267,CCOc1cc(ccc1C(=O)O)CC(=O)N[C@H](CC(C)C)c2ccccc2N3CCCCC3
Levocarnitine,3.8,161.1989,0.131995971274,-26.9921113868,0.613439931704,17.733662211,C[N+](C)(C)C[C@@H](CC(=O)[O-])O
Vismodegib,3.8,421.297,-2.53289332436,0.930835285083,0.704748213279,11.5761406099,CS(=O)(=O)c1ccc(c(c1)Cl)C(=O)Nc2ccc(c(c2)c3ccccn3)Cl
nan,3.8,405.14886972,4.13924222978,195.884698418,0.605114090765,17.733662211,c1cc(ccc1CN2C(=O)[C@H]3[C@@H]4C[C@@H](C[N@]4[C@H]([C@H]3C2=O)c5ccc(cc5)C#N)O)F
3-Bromobenzoic acid,3.81,199.9472915,2.57574704371,282.699449032,0.586716932265,16.9947596189,c1cc(cc(c1)Br)C(=O)O
D-Lactic acid,3.83,90.0779,2.65813273043,288.656688551,0.580441406046,17.4873613469,C[C@H](C(=O)O)O
Glycolic acid,3.83,76.0514,2.53726170814,297.181008201,0.570567219346,17.979963075,C(C(=O)O)O
3-Chlorobenzoic acid,3.84,155.99780708,2.57028893472,274.471227728,0.572605629901,16.7484587548,c1cc(cc(c1)Cl)C(=O)O
Lactic acid,3.86,90.0779,2.65813285363,292.47431605,0.578629318268,17.4873613469,C[C@@H](C(=O)O)O
3-Fluorobenzoic acid,3.86,140.02735762,2.57130187543,267.428988708,0.571785883229,16.7484587548,c1cc(cc(c1)F)C(=O)O
SM11,3.89,211.085795288,1.82995998359,-7.84754924194,0.710738910148,11.5761406099,c1ccc(cc1)n2c3c(cn2)c(ncn3)N
Dehydroascorbic acid,3.9,174.1082,4.93810645699,-12.2265898469,0.607760619559,16.9947596189,C([C@@H]([C@@H]1C(=O)C(=O)C(=O)O1)O)O
2-Methyl-benzoic acid,3.91,136.052429496,5.48216954446,293.128934478,0.573035019782,14.0391492504,Cc1ccccc1C(=O)O
Tenofovir alafenamide,3.96,476.474,-2.36880564044,7.24833243662,0.698804004764,12.068742338,C[C@H](Cn1cnc2c1ncnc2N)OC[P@@](=O)(N[C@@H](C)C(=O)OC(C)C)Oc3ccccc3
4-Bromobenzoic acid,3.96,199.9472915,4.30024868636,281.301284971,0.583251205409,16.5021578908,c1cc(ccc1C(=O)O)Br
quinmerac,3.96,221.024356176,3.66355572727,288.159624467,0.579718496069,17.4873613469,Cc1cc2ccc(c(c2nc1)C(=O)O)Cl
p-Chlorobenzoic acid,3.98,156.566,4.30007852137,279.096841592,0.573332520794,16.5021578908,c1cc(ccc1C(=O)O)Cl
3-Chloropropanoic acid,3.98,107.99780708,1.50301605154,292.30637662,0.575561898954,17.4873613469,C(CCl)C(=O)O
Ambrisentan,4.0,378.428,2.4269950765,274.161706107,0.584732236,16.7484587548,Cc1cc(nc(n1)O[C@H](C(=O)O)C(c2ccccc2)(c3ccccc3)OC)C
3-Bromopropanoic acid,4.0,151.9472915,1.5275798598,291.804627255,0.588234774467,17.979963075,C(CBr)C(=O)O
nan,4.0,114.059326444,1.52265417995,2.8068313245,0.731050117132,10.5909371538,C1[C@@H](CN[C@H]1C#N)F
3-Chlorobutanoic acid,4.05,122.013457144,0.703574209823,297.346465284,0.586125411726,17.733662211,C[C@@H](CC(=O)O)Cl
"2,4-Dinitrophenol",4.09,184.1064,2.19303911697,217.362547105,0.606036424709,17.2410604829,c1cc(c(cc1[N+](=O)[O-])[N+](=O)[O-])O
SM21,4.1,435.933448772,-5.99848525111,-3.08331230581,0.702450000553,8.86683110549,c1cc(cc(c1)Br)Nc2c(cnc(n2)Nc3cccc(c3)Br)F
"b'4-[(3aS,4R,8aS,8bR)-2-[(4-fluorophenyl)methyl]-1,3-dioxo-4,6,7,8,8a,8b-hexahydro-3aH-pyrrolo[3,4-a]pyrrolizin-4-yl]-3-fluorobenzenecarboximidamide'",4.1,424.171082384,-3.56330787471,589.638228356,0.70869785227,9.11313196953,c1cc(ccc1CN2C(=O)[C@H]3[C@@H]4CCC[N@]4[C@H]([C@H]3C2=O)c5ccc(cc5F)C(=N)N)F
Adenine,4.15,135.1267,2.08197313588,-10.6725301029,0.704613358165,12.5613440661,c1[nH]c2c(ncnc2n1)N
Diclofenac,4.15,296.149,4.359584026,292.583963664,0.575164627504,17.2410604829,c1ccc(c(c1)CC(=O)O)Nc2c(cccc2Cl)Cl
Naproxen,4.15,230.2592,2.75526976446,283.616522394,0.584148337504,17.4873613469,C[C@@H](c1ccc2cc(ccc2c1)OC)C(=O)O
4-Fluorobenzoic acid,4.15,140.02735762,4.31282562457,279.756086291,0.580663991511,16.7484587548,c1cc(ccc1C(=O)O)F
Butenoic Acid,4.17,86.0892,1.22128939756,311.090749616,0.571680980946,17.979963075,C/C=C/C(=O)O
2-napthoic acid,4.18,172.052429496,2.60208164145,274.837718682,0.570256244679,16.2558570267,c1ccc2cc(ccc2c1)C(=O)O
Benzoic acid,4.19,122.123,4.30607360507,291.882646508,0.570948212658,16.5021578908,c1ccc(cc1)C(=O)O
Mefenamic acid,4.2,241.2851,2.01128933282,282.091422154,0.694910021438,8.12792851337,Cc1cccc(c1C)Nc2ccccc2C(=O)O
nan,4.2,405.14886972,6.50772897334,182.82312615,0.610655325904,17.2410604829,c1cc(ccc1CN2C(=O)[C@@H]3[C@@H]([N@]4CC[C@H]([C@H]4[C@@H]3C2=O)O)c5ccc(cc5)C#N)F
"b'4-[(3aS,4R,8aS,8bR)-2-[(4-fluorophenyl)methyl]-1,3-dioxo-4,6,7,8,8a,8b-hexahydro-3aH-pyrrolo[3,4-a]pyrrolizin-4-yl]-2-fluorobenzenecarboximidamide'",4.2,424.171082384,-5.74184986173,597.479253671,0.699191320688,9.60573369762,c1cc(ccc1CN2C(=O)[C@H]3[C@@H]4CCC[N@]4[C@H]([C@H]3C2=O)c5ccc(c(c5)F)C(=N)N)F
nan,4.2,436.19106888,0.848767783144,565.642569548,0.699493173136,8.86683110549,CO[C@H]1CC[N@]2[C@H]1[C@H]3[C@@H]([C@@H]2c4ccc(cc4)C(=N)N)C(=O)N(C3=O)Cc5ccc(cc5)F
"b'4-[(3aS,4R,8aS,8bR)-2-[(4-fluorophenyl)methyl]-1,3-dioxo-4,6,7,8,8a,8b-hexahydro-3aH-pyrrolo[3,4-a]pyrrolizin-4-yl]-3,5-difluorobenzenecarboximidamide'",4.2,442.161660572,-3.34682920336,608.095220009,0.706908496196,8.86683110549,c1cc(ccc1CN2C(=O)[C@H]3[C@@H]4CCC[N@]4[C@H]([C@H]3C2=O)c5c(cc(cc5F)C(=N)N)F)F
nan,4.2,458.06413282,3.15454733409,190.43209044,0.591808015713,18.2262639391,c1cc(ccc1CN2C(=O)[C@H]3[C@@H]4C[C@H](C[N@]4[C@H]([C@H]3C2=O)c5ccc(cc5)Br)O)F
nan,4.2,458.06413282,-0.861528089775,178.684795005,0.617604725763,16.7484587548,c1cc(ccc1CN2C(=O)[C@@H]3[C@@H]([N@@]4CC[C@@H]([C@H]4[C@@H]3C2=O)O)c5ccc(cc5)Br)F
Succinic acid,4.21,118.088,5.90484220185,970.091926251,0.578667437309,17.4873613469,C(CC(=O)O)C(=O)O
SM08,4.22,293.10519334,4.42200347687,331.640378356,0.713365427558,11.3298397459,Cc1ccc2c(c1)c(c(c(=O)[nH]2)CC(=O)O)c3ccccc3