Name,pKa,Weight,∆H,∆G_solv,Bond Order,SASA,Charge_0p,Charge_0d,Charge_1p,Charge_1d,Charge_2p,Charge_2d,smiles
4-Fluorobenzoic acid,4.15,140.02735762,4.31282562457,279.756086291,0.580663991511,16.7484587548,-0.609189987679,-0.830219986183,0.652819990615,0.908399997013,-0.352810010811,-0.482729995889,c1cc(ccc1C(=O)O)F
Pentafluorobenzoic acid,1.75,211.989670372,1.82029583526,260.275854817,0.576690768943,17.4873613469,-0.590529979765,-0.79333001455,0.655189989507,0.920080005324,-0.347885006666,-0.489190005564,c1(c(c(c(c(c1F)F)F)F)F)C(=O)O
b'2-fluoroethanamine',9.0,63.048427412,0.0157894978757,301.204613693,0.706964657169,11.0835388819,-0.903779986501,-1.10119998517,0.120989997685,0.298429995154,0.114869993925,0.165460004782,C(CF)N
b'3-fluoropropan-1-amine\n3-fluoroprop-2-ynenitrile',9.9,77.064077476,0.355139765036,282.74109141,0.705725624894,8.37422937741,-0.903240023324,-1.08187997481,0.149140002063,0.304199992213,-0.158380000064,-0.199760006275,C(CN)CF
"b'2,2-difluoroethanamine'",7.3,81.0390056,0.113230363495,-4.42625500454,0.716816017831,10.5909371538,-0.90270000957,-1.03531002584,0.115859997645,0.301999990311,0.344440010563,0.253589991894,C(C(F)F)N
b'Morpholine',8.5,87.068413908,0.845620046933,242.526799948,0.719709956991,11.0835388819,-0.790759982665,-0.955609978842,0.113839996854,0.2455649956,-0.205579993129,-0.259276659893,C1COCCN1
b'3-fluoropyrrolidine',9.4,89.064077476,1.38669516521,258.192014718,0.734185831772,11.0835388819,-0.802009997357,-0.957430005575,0.134070000212,0.260489999746,-0.251769999752,-0.328510001803,C1CNC[C@H]1F
b'2-DIMETHYLAMINOETHANOL',9.0,89.084063972,1.46686877267,218.909511523,0.591470523943,16.5021578908,-0.60698998062,-0.906750019785,0.130569993573,0.432410005335,0.150020002442,0.0689000001585,CN(C)CCO
"b'2,2,2-trifluoroacetonitrile\n2,2,2-trifluoroethanamine'",5.7,99.029583788,0.675799428519,-1.31883096865,0.711427468077,10.8372380178,-0.908710001409,-0.943270030121,0.149140001833,0.318080005546,0.558340014517,0.373890010019,C(C(F)(F)F)N
b'ethyl 2-aminoacetate',7.6,103.063328528,-0.465599564435,277.457228286,0.70298881201,10.5909371538,-0.889710009331,-1.00224996197,0.114019997185,0.268719995146,0.578599989181,0.517130011444,CCOC(=O)CN
b'4-Aminobutanoic acid',10.6,103.063328528,6.77498018729,150.552218212,0.580581082963,16.5021578908,-0.611959997565,-0.578679981828,0.635860022157,0.633189973235,-0.335705004632,-0.372490006685,C(CC(=O)O)CN
b'4-fluoropiperidine',9.4,103.07972754,0.461424939663,253.627577352,0.72944865723,10.5909371538,-0.814100026427,-0.947489980259,0.156389997067,0.263900008402,-0.341026673057,-0.412156664728,C1CNCCC1F
b'3-fluoropiperidine',9.3,103.07972754,0.746916727782,251.064847607,0.703872476078,10.0983354257,-0.81450998805,-0.936100005842,0.14472000279,0.26659999814,-0.240379996817,-0.316340001659,C1C[C@@H](CNC1)F
b'3-Dimethylaminopropan-1-ol',9.3,103.099714036,5.95795394341,215.438424736,0.611208917619,16.0095561627,-0.599449992739,-0.899209976981,0.130129992403,0.436819999626,-0.082699999772,-0.157900006363,CN(C)CCCO
b'thiomorpholine',9.0,103.045570288,0.970553915092,245.377808815,0.707149607514,10.3446362897,-0.825770016884,-0.94821000179,0.160809997345,0.264635010755,-0.280956670145,-0.327550000999,C1CSCCN1
"b'3,3-difluoropyrrolidine'",7.5,107.054655664,1.00428829031,1.55817533965,0.729917028478,11.3298397459,-0.798189997673,-0.952430007549,0.124360002577,0.262015002278,-0.178613334894,-0.262176670325,C1CNCC1(F)F
"b'3,3,3-trifluoropropan-1-amine'",8.7,113.045233852,-0.0418461790161,-2.48017738329,0.711350029489,10.8372380178,-0.90017002821,-1.05706000204,0.155880004168,0.301580013086,-0.170750007033,-0.206599994252,C(CN)C(F)(F)F
"b'2,2,2-trifluoro-N-methylethanamine'",6.1,113.045233852,-1.56923627407,-3.10496102,0.735930290897,11.3298397459,-0.818769991111,-0.94927000689,0.140069999087,0.280289995794,-0.0977549848075,-0.172060009713,CNCC(F)(F)F
nan,4.0,114.059326444,1.52265417995,2.8068313245,0.731050117132,10.5909371538,-0.802690026909,-0.918680011727,0.177260002494,0.269680001341,-0.136175006256,-0.168039999403,C1[C@@H](CN[C@H]1C#N)F
nan,9.1,117.078978592,-0.481182865052,284.2172797,0.707077229818,11.3298397459,-0.905569972765,-1.05993998196,0.158729998101,0.303889988404,-0.177790003191,-0.232910008687,CCOC(=O)CCN
"b'4,4-difluoropiperidine'",8.5,121.070305728,0.5523478839,253.765755762,0.733242507956,10.5909371538,-0.817110003794,-0.940439997241,0.158759994542,0.261170001701,-0.351650001372,-0.416493334497,C1CNCCC1(F)F
"b'3,3-difluoropiperidine'",7.4,121.070305728,0.401893720726,0.866638066144,0.715494341209,11.822441474,-0.813639999751,-0.921310009435,0.141290000256,0.263305006549,-0.161203331077,-0.244273339088,C1CC(CNC1)(F)F
"b'4,4,4-trifluorobutan-1-amine'",9.7,127.060883916,-0.554920013827,299.01171296,0.717524339344,9.35943283357,-0.899089991581,-1.07384001861,0.157729998697,0.313630018135,-0.132990002166,-0.179269995789,C(CC(F)(F)F)CN
b'1-piperazin-1-ylethanone',7.9,128.094963004,1.09829497571,230.195433167,0.721409967903,10.3446362897,-0.817459999096,-0.940680022538,0.148269997466,0.260149990022,-0.208766667616,-0.284260005256,CC(=O)N1CCNCC1
nan,9.7,131.094628656,-2.29853124095,281.759044602,0.701013135405,9.11313196953,-0.902639983053,-1.08011996675,0.152789997106,0.310070008749,-0.125090000982,-0.162550001627,CCOC(=O)CCCN
nan,5.4,135.035399528,0.596897557739,1.85449937957,0.72774250319,9.35943283357,-0.805750015904,-0.91799998749,0.180369999479,0.274040008895,-0.50955667449,-0.566679998922,C1CS(=O)(=O)CCN1
b'1-piperidin-2-ylpropan-2-one',9.5,141.1153641,2.87522189683,205.681299745,0.729308861514,9.85203456166,-0.814620017223,-0.939350009314,0.175615005977,0.274534999975,-0.288922504671,-0.330992503441,CC(=O)C[C@H]1CCCCN1
b'ethyl 5-aminopentanoate',10.5,145.11027872,1.54519818082,266.50506395,0.714839480082,9.11313196953,-0.904929998964,-1.10558998662,0.152529996186,0.315780013024,-0.123410004824,-0.0931200020326,CCOC(=O)CCCCN
b'N-(phenylmethyl)propan-1-amine',9.6,149.12044948,-2.44469740011,198.709956587,0.712785666884,7.63532678528,-0.827099980643,-0.954159975853,0.190060002873,0.294925003443,-0.332736660273,-0.335926660206,CCCNCc1ccccc1
b'2-phenylsulfanylethanamine',9.0,153.061220352,2.25074304139,261.004865194,0.708304268724,10.8372380178,-0.901080010392,-1.04259002237,0.1653299947,0.305550008733,-0.0880900006076,-0.103479996603,c1ccc(cc1)SCCN
"b'2,2,6,6-tetramethylpiperidin-4-one'",7.9,155.131014164,0.76793806842,224.034082096,0.725437782779,10.8372380178,-0.820620000362,-0.934130012748,0.198310002685,0.282160014156,-0.228745711701,-0.244170001333,CC1(CC(=O)CC(N1)(C)C)C
b'Ethyl piperazine-1-carboxylate',8.2,158.105527688,1.05404066339,235.030354805,0.704017984281,11.3298397459,-0.826600016654,-0.93923002497,0.147310002148,0.260610014045,-0.205680004259,-0.282856675641,CCOC(=O)N1CCNCC1
b'ethyl 6-aminohexanoate',10.3,159.125928784,-0.0264291142726,272.490690366,0.716247216899,8.86683110549,-0.904709995325,-1.08819997435,0.151380001966,0.306030003975,-0.122390002544,-0.162850008657,CCOC(=O)CCCCCN
b'1-PHENYLPIPERAZINE',9.0,162.115698448,0.989975519734,224.059830602,0.72991136449,10.8372380178,-0.826910018348,-0.942300021648,0.16225999651,0.270889997482,-0.148763338152,-0.211046675841,c1ccc(cc1)N2CCNCC2
b'1-pyridin-2-ylpiperazine',8.9,163.110947416,0.915759293553,215.198426018,0.717637907603,10.3446362897,-0.822179972976,-0.731920003328,0.159559995085,0.540834993687,-0.146279990524,-0.521719999049,c1ccnc(c1)N2CCNCC2
b'2-piperazin-1-ylpyrimidine',8.9,164.106196384,0.878566914771,231.093575487,0.721859166012,9.35943283357,-0.822430012282,-0.776199995662,0.155250000302,0.672719986057,-0.140496668871,-0.684642492915,c1cnc(nc1)N2CCNCC2
b'3-phenylsulfanylpropan-1-amine',9.9,167.076870416,3.82824679449,268.250842579,0.720779284748,10.8372380178,-0.906050023293,-1.05193996527,0.154369998122,0.306749998551,-0.114969995474,-0.184239999432,c1ccc(cc1)SCCCN
"b'2-amino-N-(2,6-dimethylphenyl)acetamide'",7.7,178.110613068,-10.0059138822,251.215139038,0.710165497191,8.37422937741,-0.47667000084,-0.536040009358,0.327130008351,0.369010015033,-0.228001997758,-0.306254003741,Cc1cccc(c1NC(=O)CN)C
b'4-phenylsulfanylbutan-1-amine',10.4,181.09252048,3.92953311363,252.420087567,0.706763403649,8.62053024145,-0.903389990985,-1.08264994815,0.151189997137,0.304890004846,-0.123779997885,-0.162000002411,c1ccc(cc1)SCCCCN
b'2-phenylsulfonylethanamine',7.8,185.051049592,0.386539064878,0.776821770093,0.718672105206,9.60573369762,-0.89775997627,-0.672450004653,0.183889997718,0.187480003996,-0.366629990223,-1.00512003763,c1ccc(cc1)S(=O)(=O)CCN
b'N-(2-dimethylaminoethyl)benzamide',8.5,192.126263132,-1.3265875467,214.308827904,0.724666370368,10.8372380178,-0.564079999924,-0.589559973137,0.377935014665,0.327260009093,-0.2964050062,-0.321884994315,CN(C)CCNC(=O)c1ccccc1
"b'3-amino-N-(2,6-dimethylphenyl)propanamide'",8.8,192.126263132,-12.7821920999,251.684879608,0.70451819126,9.60573369762,-0.484160005053,-0.551150026506,0.35644501547,0.396525000447,-0.28501000305,-0.357984000033,Cc1cccc(c1NC(=O)CCN)C
nan,9.3,193.126677732,1.21350788488,230.870192167,0.729278249821,11.3298397459,-0.787800014143,-0.93112999355,0.134205002214,0.267625002512,-0.257936669017,-0.313519998443,c1ccc(cc1)C[C@@H]2CCNC[C@@H]2F
nan,8.8,193.126677732,0.259934479932,237.252544821,0.740832193671,10.0983354257,-0.786230026186,-0.935630023479,0.132639998198,0.259560003877,-0.255556673805,-0.319753341377,c1ccc(cc1)C[C@@H]2CCNC[C@H]2F
nan,10.5,195.108170544,6.07887622399,243.010595856,0.70950263686,8.62053024145,-0.904039980502,-1.0885200487,0.150590001016,0.303739996113,-0.123530001969,-0.161719991408,c1ccc(cc1)SCCCCCN
"b'1,1,1-trifluoro-3-piperidin-1-ylpropan-2-ol'",8.1,197.102748728,2.67071959576,-5.67573102427,0.605320288666,16.7484587548,-0.578480006644,-0.804440022804,0.118589995912,0.440970002315,0.383875011018,0.289589992366,C1CCN(CC1)C[C@H](C(F)(F)F)O
b'3-phenylsulfonylpropan-1-amine',9.2,199.066699656,0.927134463115,224.68368457,0.711659892425,9.35943283357,-0.905920030119,-1.03298997849,0.161139993427,0.304500013888,-0.104280003848,-0.167219996154,c1ccc(cc1)S(=O)(=O)CCCN
b'N-(2-aminoethyl)benzenesulfonamide',9.0,200.061948624,4.7981795756,289.049265125,0.695850431998,9.35943283357,-0.905380014181,-1.03765999852,0.146699991226,0.300199989695,0.180719997883,0.0990000036545,c1ccc(cc1)S(=O)(=O)NCCN
b'N-(3-dimethylaminopropyl)benzamide',9.3,206.141913196,-4.30428274011,208.122602105,0.707678499511,9.11313196953,-0.569079995946,-0.58845001366,0.381645000681,0.331920010038,-0.354662501112,-0.379600004293,CN(C)CCCNC(=O)c1ccccc1
"b'4-amino-N-(2,6-dimethylphenyl)butanamide'",9.4,206.141913196,-9.95027064859,207.836297623,0.70397163424,8.86683110549,-0.489600004007,-0.548900009482,0.35482999372,0.390655009658,-0.275527997067,-0.349458005815,Cc1cccc(c1NC(=O)CCCN)C
nan,10.0,213.08234972,-0.432750220947,244.793502116,0.721405593259,8.62053024145,-0.906210003613,-1.07322001244,0.152089999796,0.302789988262,-0.115709996044,-0.162070004003,c1ccc(cc1)S(=O)(=O)CCCCN
"b'1,1,1-trifluoro-3-(phenylmethylamino)propan-2-ol'",7.3,219.087098664,3.75445235649,-7.29542851001,0.605777100139,17.2410604829,-0.573059974997,-0.789539993956,0.120339998217,0.447250007437,0.373079993935,0.267429998861,c1ccc(cc1)CNC[C@H](C(F)(F)F)O
"b'5-amino-N-(2,6-dimethylphenyl)pentanamide'",9.8,220.15756326,-7.77519234491,246.744533467,0.714207782846,9.85203456166,-0.493330001728,-0.54966002426,0.356454989045,0.393389995183,-0.276447999374,-0.349838003729,Cc1cccc(c1NC(=O)CCCCN)C
nan,10.4,227.097999784,4.68374732298,221.809409695,0.718596948772,9.85203456166,-0.906740009901,-1.0828800208,0.152710005525,0.304379998977,-0.123939998564,-0.165099994009,c1ccc(cc1)S(=O)(=O)CCCCCN
b'N-(3-aminopropyl)-4-methylbenzenesulfonamide',9.9,228.093248752,3.31074131626,248.366877986,0.723162551303,12.5613440661,-0.915970026906,-1.08397996519,0.873135001008,0.976765005849,-0.549343996699,-0.588977993466,Cc1ccc(cc1)S(=O)(=O)NCCCN
"b'6-amino-N-(2,6-dimethylphenyl)hexanamide'",10.1,234.173213324,-3.65533626802,259.173495036,0.713971553811,9.11313196953,-0.487370014955,-0.548160015949,0.354314997028,0.391675010912,-0.275703997184,-0.351278000482,Cc1cccc(c1NC(=O)CCCCCN)C
b'1-(4-methylphenyl)sulfonylpiperazine',7.4,240.093248752,1.7135651754,255.967862134,0.720867706678,10.8372380178,-0.827160002664,-0.915610018997,0.165409995243,0.269890006752,-0.134073338782,-0.202350004146,Cc1ccc(cc1)S(=O)(=O)N2CCNCC2
b'4-[2-[4-(phenylmethyl)piperidin-1-yl]ethylsulfonyl]phenol',6.8,359.15551466,4.27771939647,212.293693881,0.579554448823,18.2262639391,-0.484849988073,-0.726469993439,0.192020000368,0.583750009689,-0.215269996375,-0.323020011035,c1ccc(cc1)CC2CCN(CC2)CCS(=O)(=O)c3ccc(cc3)O
"b'(3S,4S)-1-[2-(4-hydroxyphenyl)sulfonylethyl]-4-(phenylmethyl)piperidin-3-ol'",6.5,375.15042928,7.34570924555,215.359201536,0.602346205353,15.5169544346,-0.595030010623,-0.856199982325,0.146420001107,0.445169982752,0.0427499963518,-0.0160699996445,c1ccc(cc1)C[C@H]2CC[N@@](C[C@H]2O)CCS(=O)(=O)c3ccc(cc3)O
nan,5.6,375.15042928,3.50454178159,208.978564775,0.604593941704,16.5021578908,-0.600199997206,-0.877049980547,0.142440006356,0.430740000819,0.0405250044868,-0.0255349966243,c1ccc(cc1)C[C@H]2CC[N@@](C[C@@H]2O)CCS(=O)(=O)c3ccc(cc3)O
"b'3-[3-[4-(phenylmethyl)piperidin-1-yl]propyl]-5-(1,2,4-triazol-4-yl)-1H-indole'",9.7,399.242295928,2.96474894542,184.070856877,0.710621961147,11.822441474,-0.579500018903,-0.400269984444,0.0416950007853,-0.010484999688,-0.225047505745,-0.2177649971,c1ccc(cc1)CC2CCN(CC2)CCCc3c[nH]c4c3cc(cc4)n5cnnc5
nan,3.8,405.14886972,4.13924222978,195.884698418,0.605114090765,17.733662211,-0.591889977828,-0.608709992385,0.117159999534,0.713460026765,0.0045000012964,-0.333984987354,c1cc(ccc1CN2C(=O)[C@H]3[C@@H]4C[C@@H](C[N@]4[C@H]([C@H]3C2=O)c5ccc(cc5)C#N)O)F
nan,3.7,405.14886972,3.0482936292,190.928775228,0.597264626489,17.2410604829,-0.590480028372,-0.604740023309,0.119269998092,0.711669981784,0.00676500173286,-0.337240002745,c1cc(ccc1CN2C(=O)[C@H]3[C@@H]4C[C@H](C[N@]4[C@H]([C@H]3C2=O)c5ccc(cc5)C#N)O)F
nan,4.2,405.14886972,6.50772897334,182.82312615,0.610655325904,17.2410604829,-0.602469981946,-0.631160021474,0.120709999166,0.714860021422,0.0176800030097,-0.353049994161,c1cc(ccc1CN2C(=O)[C@@H]3[C@@H]([N@]4CC[C@H]([C@H]4[C@@H]3C2=O)O)c5ccc(cc5)C#N)F
"b'4-[(3aS,4R,8aS,8bR)-2-[(4-fluorophenyl)methyl]-1,3-dioxo-4,6,7,8,8a,8b-hexahydro-3aH-pyrrolo[3,4-a]pyrrolizin-4-yl]benzenecarboximidamide'",4.5,406.180504196,-2.95778098561,583.323824094,0.703860343955,8.86683110549,-1.0148400043,-1.00645005434,0.696590008882,0.610289993588,-0.495080006572,-0.518180025849,c1cc(ccc1CN2C(=O)[C@H]3[C@@H]4CCC[N@]4[C@H]([C@H]3C2=O)c5ccc(cc5)C(=N)N)F
nan,3.1,409.160183352,3.67119831771,198.988832342,0.615351700562,16.5021578908,-0.589049995968,-0.738049985613,0.307819991281,0.684740005289,-0.310189985761,-0.327174993004,c1cc(ccc1CN2[C@H]([C@@H]3[C@@H]([N@@]4C[C@H](C[C@H]4[C@@H]3C2=O)F)c5ccc(cc5)C#N)O)F
nan,3.3,411.175833416,2.45112366204,199.914928259,0.59320038108,17.733662211,-0.597140014277,-0.730849982812,0.305860012664,0.686860023425,-0.312719989673,-0.327334994092,c1cc(ccc1CN2[C@H]([C@H]3[C@@H](C2=O)[C@@H]4[C@H](CC[N@@]4[C@H]3[C@H]5CC=C(C=C5)C#N)F)O)F
nan,3.3,411.175833416,2.64818436984,202.267958925,0.595906852402,17.733662211,-0.596830011205,-0.736599982018,0.299749999448,0.684199988609,-0.306339994864,-0.324604995782,c1cc(ccc1CN2[C@H]([C@H]3[C@@H](C2=O)[C@@H]4[C@@H](CC[N@@]4[C@H]3[C@H]5CC=C(C=C5)C#N)F)O)F
"b'3-[3-[4-fluoro-4-(phenylmethyl)piperidin-1-yl]propyl]-5-(1,2,4-triazol-4-yl)-1H-indole'",8.8,417.232874116,1.95235963713,189.99456206,0.715590278458,12.068742338,-0.579299986757,-0.399839996633,0.0433849991078,-0.0105149986158,-0.225274997227,-0.217290000332,c1ccc(cc1)CC2(CCN(CC2)CCCc3c[nH]c4c3cc(cc4)n5cnnc5)F
"b'3-[2-fluoro-3-[4-(phenylmethyl)piperidin-1-yl]propyl]-5-(1,2,4-triazol-4-yl)-1H-indole'",8.7,417.232874116,8.04946770566,188.090795914,0.706303157142,12.068742338,-0.577639996911,-0.399230003534,0.0516199992054,-0.00065500027468,-0.227539999316,-0.219497500164,c1ccc(cc1)CC2CCN(CC2)C[C@@H](Cc3c[nH]c4c3cc(cc4)n5cnnc5)F
nan,6.0,418.216889704,6.09094532376,562.016761178,0.70941757484,8.12792851337,-1.0201100111,-1.00645005464,0.697009980679,0.608919980527,-0.497255004942,-0.521270026861,C=C[C@@H]1[C@H]2[C@@H]3CCC[N@@]3[C@H]([C@H]2C(=O)N1Cc4ccc(cc4)F)c5ccc(cc5)C(=N)N
nan,6.3,420.232539768,5.58469934752,551.268791033,0.705930045799,9.11313196953,-1.01601004476,-1.006309987,0.694339991858,0.609359978746,-0.496410003553,-0.520284994458,CC[C@@H]1[C@H]2[C@@H]3CCC[N@@]3[C@H]([C@H]2C(=O)N1Cc4ccc(cc4)F)c5ccc(cc5)C(=N)N
"b'4-[(3aS,4R,8aS,8bR)-2-[(4-fluorophenyl)methyl]-1,3-dioxo-4,6,7,8,8a,8b-hexahydro-3aH-pyrrolo[3,4-a]pyrrolizin-4-yl]-2-fluorobenzenecarboximidamide'",4.2,424.171082384,-5.74184986173,597.479253671,0.699191320688,9.60573369762,-0.948570013117,-0.994499981188,0.650860011507,0.606959998823,-0.487270012568,-0.517779990816,c1cc(ccc1CN2C(=O)[C@H]3[C@@H]4CCC[N@]4[C@H]([C@H]3C2=O)c5ccc(c(c5)F)C(=N)N)F
"b'4-[(3aS,4R,8aS,8bR)-2-[(4-fluorophenyl)methyl]-1,3-dioxo-4,6,7,8,8a,8b-hexahydro-3aH-pyrrolo[3,4-a]pyrrolizin-4-yl]-3-fluorobenzenecarboximidamide'",4.1,424.171082384,-3.56330787471,589.638228356,0.70869785227,9.11313196953,-0.969619991082,-1.00257003207,0.665809987289,0.607900024463,-0.470819996494,-0.506405015404,c1cc(ccc1CN2C(=O)[C@H]3[C@@H]4CCC[N@]4[C@H]([C@H]3C2=O)c5ccc(cc5F)C(=N)N)F
nan,3.4,424.171082384,3.88977564964,617.826085624,0.706070175446,8.37422937741,-1.01969003698,-1.00584995607,0.697279989509,0.609809996095,-0.493925001683,-0.516304977704,c1cc(ccc1CN2C(=O)[C@@H]3[C@@H]([N@@]4CC[C@H]([C@@H]4[C@@H]3C2=O)F)c5ccc(cc5)C(=N)N)F
nan,3.3,424.171082384,-0.000882440984027,596.741572884,0.712941822513,8.62053024145,-1.01933002296,-1.00212001543,0.696259977191,0.60579997559,-0.492555005581,-0.515510006091,c1cc(ccc1CN2C(=O)[C@@H]3[C@@H]([N@@]4CC[C@@H]([C@@H]4[C@@H]3C2=O)F)c5ccc(cc5)C(=N)N)F
nan,3.3,424.171082384,1.15093564997,608.770550692,0.705367008278,8.86683110549,-1.01987004273,-1.00531005501,0.697380006384,0.609390023952,-0.493044994701,-0.51573002539,c1cc(ccc1CN2C(=O)[C@H]3[C@H]4C[C@H](C[N@@]4[C@H]([C@H]3C2=O)c5ccc(cc5)C(=N)N)F)F
nan,3.3,424.171082384,0.517196211351,580.253480936,0.711237677605,9.11313196953,-1.02005994425,-1.00458001987,0.69766002788,0.608020008649,-0.492959999602,-0.515445009698,c1cc(ccc1CN2C(=O)[C@H]3[C@H]4C[C@@H](C[N@@]4[C@H]([C@H]3C2=O)c5ccc(cc5)C(=N)N)F)F
nan,6.0,424.207467892,-4.78023954593,576.704435739,0.708617201679,9.11313196953,-0.949769974474,-1.00542998484,0.656210004564,0.608189998361,-0.486319997135,-0.519644994122,c1cc(ccc1CN2[C@@H]([C@H]3[C@@H]4CCC[N@]4[C@H]([C@H]3C2=O)c5ccc(cc5)C(=N)N)CF)F
nan,2.0,427.15076154,2.79344326809,-2.23841861267,0.610492216013,17.979963075,-0.586880026422,-0.736440002625,0.306490005889,0.684530020053,-0.307589987329,-0.323400005405,c1cc(ccc1CN2[C@H]([C@@H]3[C@@H]([N@@]4CC(C[C@H]4[C@@H]3C2=O)(F)F)c5ccc(cc5)C#N)O)F
nan,2.0,429.166411604,2.44274063207,-3.90939422778,0.614507617087,17.979963075,-0.595080018026,-0.724650024562,0.300300002116,0.685060025067,-0.307989999634,-0.323645002334,c1cc(ccc1CN2[C@H]([C@H]3[C@@H](C2=O)[C@@H]4C(CC[N@]4[C@H]3[C@H]5CC=C(C=C5)C#N)(F)F)O)F
nan,6.2,432.232539768,1.17423565261,555.694231837,0.703834494427,8.12792851337,-0.955240011459,-1.00683999074,0.659669995064,0.609420001383,-0.486390009767,-0.520749995609,C=CC[C@@H]1[C@H]2[C@@H]3CCC[N@@]3[C@H]([C@H]2C(=O)N1Cc4ccc(cc4)F)c5ccc(cc5)C(=N)N
nan,6.5,434.248189832,3.88918732692,545.533843419,0.699292219412,9.60573369762,-0.950160025959,-1.00557005225,0.654980004425,0.606630029097,-0.486900001173,-0.520620025754,CC(C)[C@@H]1[C@H]2[C@@H]3CCC[N@@]3[C@H]([C@H]2C(=O)N1Cc4ccc(cc4)F)c5ccc(cc5)C(=N)N
nan,6.2,434.248189832,1.97672511801,557.101350977,0.700646500506,9.11313196953,-0.985019981625,-1.00606000429,0.676580012081,0.609730005204,-0.491985007884,-0.520450001643,CCC[C@@H]1[C@H]2[C@@H]3CCC[N@@]3[C@H]([C@H]2C(=O)N1Cc4ccc(cc4)F)c5ccc(cc5)C(=N)N