Name,pKa,Weight,∆H,∆G_solv,Bond Order,SASA,Charge_0p,Charge_0d,Charge_1p,Charge_1d,Charge_2p,Charge_2d,smiles
Nalidixic acid,8.6,232.2353,2.30458567186,292.703243135,0.575689705507,14.7780518425,-0.568130014785,-0.542180003532,0.67084002649,0.591099975697,-0.456414996036,-0.29640999616,CCn1cc(c(=O)c2c1nc(cc2)C)C(=O)O
Nalmefene,7.6,339.435,3.89735202994,163.928915754,0.606307020623,18.4725648031,-0.492810010836,-0.766309977647,0.113459996954,0.580659984473,-0.0475849955529,-0.215435003068,C=C1CC[C@]2([C@H]3Cc4ccc(c5c4[C@]2([C@H]1O5)CC[N@]3CC6CC6)O)O
Naproxen,4.15,230.2592,2.75526976446,283.616522394,0.584148337504,17.4873613469,-0.616530001434,-0.830879986938,0.634980022637,0.92005997831,-0.295734996246,-0.499944993015,C[C@@H](c1ccc2cc(ccc2c1)OC)C(=O)O
Niacin,4.75,123.1094,2.6024386793,284.326877268,0.587710020252,16.9947596189,-0.605300007654,-0.82910001149,0.657180012869,0.911509991982,-0.404360009623,-0.529875001512,c1cc(cnc1)C(=O)O
Nicotinamide,3.35,122.1246,2.04302643253,1.23039610573,0.704775328623,9.35943283357,-0.671249989296,-0.688579978155,0.676320012783,0.547550021006,-0.436589989687,-0.501305015492,c1cc(cnc1)C(=O)N
Nitrofural,10.0,198.1362,2.40668629661,1.55474155928,0.712148995247,11.5761406099,-0.34226998724,-0.304250003549,0.222684993967,-0.118515003019,-0.346330002323,0.266366668887,c1cc(oc1/C=N/NC(=O)N)[N+](=O)[O-]
Nitrofurantoin,7.2,238.159,3.15996144306,3.21914039832,0.706403331879,13.0539457942,-0.607729971085,-0.5165900003,0.773080021467,0.727909981104,-0.399638002787,-0.431371992437,c1cc(oc1/C=N/N2CC(=O)NC2=O)[N+](=O)[O-]
Nonivamide,9.77,293.4012,2.16087669659,-12.7862888437,0.723038035653,8.86683110549,-0.565789995948,-0.608470021361,0.398399995407,0.355309986896,-0.364150004694,-0.388530002171,CCCCCCCCC(=O)NCc1ccc(c(c1)OC)O
Nortriptyline,9.7,263.3767,0.666748449357,213.633940027,0.724239996777,10.0983354257,-0.818970023541,-0.964929998189,0.154795006962,0.282340004772,-0.439520011542,-0.518199999153,CNCCC=C1c2ccccc2CCc3c1cccc3
o-Bromophenol,8.45,173.007,2.30407357797,3.32534092707,0.584256549933,17.979963075,-0.490399988225,-0.768700001451,0.157399995396,0.575839998511,-0.13742000409,-0.268544999572,c1ccc(c(c1)O)Br
Omeprazole,9.29,345.416,0.141765838897,-19.3564810553,0.707187699283,11.3298397459,-0.623809994437,-0.680140017615,0.258604998462,0.427489996805,-0.190606002934,-0.302487502889,Cc1cnc(c(c1OC)C)C[S@@](=O)c2[nH]c3cc(ccc3n2)OC
Oxacillin,2.72,401.436,0.839528236993,291.180084405,0.72550940064,9.60573369762,-0.555429995218,-0.554300011095,0.381675004801,0.348380009684,-0.158325994173,-0.165532005724,Cc1c(c(no1)c2ccccc2)C(=O)N[C@H]3[C@@H]4N(C3=O)[C@H](C(S4)(C)C)C(=O)O
Oxaprozin,4.3,293.3166,2.2002556107,286.879997723,0.575645512381,16.5021578908,-0.606739997864,-0.841889978904,0.63490998745,0.906270025712,-0.338769987226,-0.522239991981,c1ccc(cc1)c2c(oc(n2)CCC(=O)O)c3ccccc3
Oxcarbazepine,13.73,252.268,1.51309994131,-2.21347826724,0.714828263075,8.86683110549,-0.677630006666,-0.686079981923,0.781639993792,0.676010009646,-0.471555008883,-0.570455002785,c1ccc2c(c1)CC(=O)c3ccccc3N2C(=O)N
Oxetacaine,6.25,467.654,5.97202665396,177.689652886,0.590303032824,9.11313196953,-0.608460011383,-0.574899971158,0.127049995164,0.667909980147,0.179769990544,-0.197270013065,CC(C)(Cc1ccccc1)N(C)C(=O)CN(CCO)CC(=O)N(C)C(C)(C)Cc2ccccc2
Oxybutynin,8.04,357.4864,3.6879428965,195.077494077,0.591308687892,13.5465475223,-0.578469992534,-0.591530025205,0.176870002493,0.552839994231,0.148846668894,-0.0127599986403,CCN(CC)CC#CCOC(=O)[C@](c1ccccc1)(C2CCCCC2)O
Oxymorphone,8.17,301.3371,-0.221350341822,193.040195803,0.607581541268,16.7484587548,-0.591949999196,-0.54070997113,0.176469996708,0.56889999038,0.0218600029868,-0.052645000309,C[N@]1CC[C@]23c4c5ccc(c4O[C@H]2C(=O)CC[C@]3([C@H]1C5)O)O
Oxyquinoline,5.017,145.158,1.49358945027,9.741656576,0.591688753074,18.4725648031,-0.497200012207,-0.72162002347,0.0953999981284,0.521650016089,0.0792100057006,-0.0681149961756,c1cc2cccnc2c(c1)O
P-Anisic Acid,4.47,152.1473,2.47067089888,293.4752138,0.571191330373,16.5021578908,-0.613640011925,-0.834219992368,0.65671002708,0.909569978507,-0.3664250017,-0.49220999351,COc1ccc(cc1)C(=O)O
p-Chlorobenzoic acid,3.98,156.566,4.30007852137,279.096841592,0.573332520794,16.5021578908,-0.611590027064,-0.82841002443,0.652390003949,0.907310013984,-0.343254997581,-0.475880010661,c1cc(ccc1C(=O)O)Cl
P-Cresol,10.3,108.1378,2.97502913222,-4.14094098928,0.606892193009,17.979963075,-0.499190001981,-0.807009993711,0.118790001376,0.555029989562,-0.181600003736,-0.339520006099,Cc1ccc(cc1)O
P-Hydroxybenzaldehyde,7.61,122.1213,2.89313613807,-8.1104380521,0.584370851347,16.9947596189,-0.4907999916,-0.661199986868,0.157050000317,0.597100019521,-0.202680004947,-0.394430011444,c1cc(ccc1C=O)O
P-Nitrophenol,7.15,139.1088,4.89982310833,229.057683524,0.583366312314,17.733662211,-0.482859997948,-0.733929988912,0.170210004846,0.572319987247,-0.199709995588,-0.324789998105,c1cc(ccc1[N+](=O)[O-])O
Palbociclib,7.4,447.5328,-1.55539053113,241.005393938,0.704247059973,11.0835388819,-0.833299994972,-0.739340007778,0.784384995196,0.702020003918,-0.656582004335,-0.694659993526,Cc1c2cnc(nc2n(c(=O)c1C(=O)C)C3CCCC3)Nc4ccc(cn4)N5CCNCC5
Paroxetine,9.9,329.3654,1.17048823618,226.635927478,0.733484446229,11.5761406099,-0.791010022671,-0.937399984197,0.148084997623,0.269769995614,-0.333593339236,-0.391243329441,c1cc(ccc1[C@@H]2CCNC[C@H]2COc3ccc4c(c3)OCO4)F
Pentazocine,8.88,285.4238,3.16756258028,163.039159138,0.599680283834,17.979963075,-0.500029981214,-0.800639987586,0.117779999894,0.555890023114,-0.183690004128,-0.333509997128,C[C@H]1[C@H]2Cc3ccc(cc3[C@@]1(CC[N@@]2CC=C(C)C)C)O
Pentobarbital,8.11,226.2722,4.81947986001,-0.561115335986,0.701636197798,13.0539457942,-0.598510023864,-0.551999986059,0.764019998996,0.724975019806,-0.513482007297,-0.565662005431,CCC[C@H](C)C1(C(=O)NC(=O)NC1=O)CC
Perphenazine,7.94,403.969,2.44473198284,211.284330555,0.609784774454,16.9947596189,-0.605700016233,-0.900610028229,0.129399999765,0.432929994144,0.169909998564,0.0760800033593,c1ccc2c(c1)N(c3cc(ccc3S2)Cl)CCCN4CCN(CC4)CCO
Phenazopyridine,5.05,213.2385,-1.36139535566,-0.437780980566,0.708500281701,10.8372380178,-0.955039978312,-0.73543000275,0.760749995424,0.648159980237,-0.483724996732,-0.613334984125,c1ccc(cc1)/N=N/c2ccc(nc2N)N
Phenelzine,7.25,136.1943,1.49706442211,-2.60864399224,0.712933744687,10.3446362897,-0.646279989996,-0.911360024608,-0.597919999876,-0.496259986556,0.118630000136,0.0697999977108,c1ccc(cc1)CCNN
Phenethylamine,9.83,121.1796,-0.609968390155,263.386097655,0.715925580279,11.0835388819,-0.904690026864,-1.04379999704,0.154300004616,0.303970008427,-0.08134999834,-0.173460007376,c1ccc(cc1)CCN
Phenobarbital,7.3,232.2353,0.0347016095514,-2.89908098467,0.700825681449,12.8076449302,-0.597379984655,-0.542720019418,0.764104989967,0.731279999417,-0.501015988686,-0.556468000609,CCC1(C(=O)NC(=O)NC1=O)c2ccccc2
Phenol,9.99,94.1112,4.67751922681,-4.99666384687,0.602043647002,17.4873613469,-0.499179990819,-0.813199995086,0.123570000896,0.552590014413,-0.185279996922,-0.339960006997,c1ccc(cc1)O
Phenolphthalein,9.7,318.3228,3.21845825729,-3.72535089807,0.581555740314,17.979963075,-0.495070009443,-0.609860000779,0.135210008409,0.735289993117,-0.190740003202,-0.294604999592,c1ccc2c(c1)C(=O)OC2(c3ccc(cc3)O)c4ccc(cc4)O
Phenoxymethylpenicillin,2.79,350.39,5.78470330492,276.576483371,0.720119129004,11.822441474,-0.574859979474,-0.601419985658,0.348785000942,0.355020001167,-0.0593719971411,-0.0959359962402,CC1([C@@H](N2[C@H](S1)[C@@H](C2=O)NC(=O)COc3ccccc3)C(=O)O)C
Phentermine,9.84,149.2328,0.649113745266,237.324641418,0.712955664031,9.60573369762,-0.897409976245,-1.05611002305,0.177849992393,0.290870012259,-0.0804066652766,-0.100566666409,CC(C)(Cc1ccccc1)N
Phenylalanine,1.24,165.1891,-2.50790619172,178.973192687,0.57989136008,13.7928483863,-0.593959988459,-0.636860010807,0.640439985887,0.519930007275,-0.209734992489,-0.186735001985,c1ccc(cc1)C[C@@H](C(=O)O)N
Phenylpropanolamine,9.44,151.209,0.958407349914,227.518597036,0.723436100993,9.60573369762,-0.911249994456,-1.11120998825,0.129649997534,0.272659987555,0.0330099992764,0.0185099992618,C[C@@H]([C@@H](c1ccccc1)O)N
Phenytoin,8.33,252.268,1.99283558918,-4.26869539377,0.703310790544,13.0539457942,-0.608950019844,-0.533550023225,0.762849985592,0.691695005509,-0.448368001946,-0.500698010189,c1ccc(cc1)C2(C(=O)NC(=O)N2)c3ccccc3
Pholcodine,9.3,398.4953,10.0451897682,558.827832202,0.602304988544,16.2558570267,-0.587010024731,-0.836610018693,0.16584999984,0.440169990577,-0.0225199970054,-0.0321549991595,C[N@]1CC[C@]23c4c5ccc(c4O[C@H]2[C@H](C=C[C@H]3[C@H]1C5)O)OCCN6CCOCC6
Phthalic Acid,2.76,166.1308,5.62323364055,902.170488665,0.574639746634,16.0095561627,-0.601059979035,-0.527570007698,0.649129980968,0.664089979275,-0.297924997492,-0.383519994424,c1ccc(c(c1)C(=O)O)C(=O)O
Physostigmine,6.12,275.3461,4.27991956474,187.670455477,0.714868177081,11.0835388819,-0.56054001975,-0.566779972037,0.414190006227,0.375054995547,-0.499903340419,-0.575863322536,C[C@@]12CC[N@@]([C@@H]1[N@](c3c2cc(cc3)OC(=O)NC)C)C
Pimelic Acid,4.51,160.1678,11.5640023934,886.883898318,0.575160873433,15.5169544346,-0.614530023349,-0.563180026514,0.633949998604,0.636479976672,-0.335619997395,-0.372880008918,C(CCC(=O)O)CCC(=O)O
Pimozide,8.63,461.5462,5.51325191632,178.169341757,0.701476476435,12.068742338,-0.44813001215,-0.402119993953,0.393365006303,0.377699994692,-0.311674000542,-0.361600007652,c1ccc2c(c1)[nH]c(=O)n2C3CCN(CC3)CCCC(c4ccc(cc4)F)c5ccc(cc5)F
Pioglitazone,5.19,356.439,15.5083770765,189.302611762,0.686145582929,10.8372380178,-0.615880012388,-0.645020006733,0.70712500823,0.406999991699,-0.399190004046,-0.306045001881,CCc1ccc(nc1)CCOc2ccc(cc2)C[C@@H]3C(=O)NC(=O)S3
Piperazine,9.73,86.1356,-0.295320502583,244.920824646,0.725175505857,10.5909371538,-0.805190024897,-0.955250022312,0.135849999264,0.27329001079,-0.177823343004,-0.240216674904,C1CNCCN1
Piroxicam,6.3,331.346,0.493485785141,-4.47422341282,0.600555434577,13.5465475223,-0.479699998344,-0.761150002426,0.217160002147,0.642180025631,-0.0634649998457,-0.280379993788,C[N@]1C(=C(c2ccccc2S1(=O)=O)O)C(=O)Nc3ccccn3
Prazosin,6.54,383.4011,5.95973475105,2.3360897054,0.71101045161,9.11313196953,-0.942340016061,-0.778240024811,0.728869974917,0.660570025677,-0.581515013867,-0.629635005957,COc1cc2c(cc1OC)nc(nc2N)N3CCN(CC3)C(=O)c4ccco4
Probenecid,3.4,285.359,2.95777164873,263.055094737,0.592391464975,15.7632552987,-0.60510999082,-0.815310001071,0.64350998284,0.901210010354,-0.309954994603,-0.432944999706,CCCN(CCC)S(=O)(=O)c1ccc(cc1)C(=O)O
Procainamide,9.32,235.3253,1.74183251387,199.701743921,0.721335101767,10.5909371538,-0.563929974249,-0.591090021982,0.379004993329,0.329200001106,-0.30910749655,-0.328992510542,CCN(CC)CCNC(=O)c1ccc(cc1)N
Procaine,8.05,236.3101,1.1661036592,185.922028229,0.713480584861,10.5909371538,-0.852769971498,-0.686049997845,0.206389992825,0.197209998926,-0.22683000625,-0.304259985724,CCN(CC)CCOC(=O)c1ccc(cc1)N
Proflavine,8.06,209.2465,0.783016922514,-1.39352703911,0.712779059723,10.5909371538,-0.818710027883,-0.659640013957,0.15261000519,0.188559994316,-0.218869997809,-0.304564997339,c1cc(cc2c1cc3ccc(cc3n2)N)N
Propanoic acid,4.88,74.0785,1.57336823392,314.67390164,0.594296251831,16.2558570267,-0.614809986543,-0.85518998187,0.634779993106,0.90807997901,-0.337945010852,-0.526649991982,CCC(=O)O
Proparacaine,3.2,294.3892,0.792515542203,183.437019298,0.713172161665,10.5909371538,-0.88543999203,-0.708280025495,0.18560999624,0.19548000537,-0.0580150001544,-0.16879500307,CCCOc1ccc(cc1N)C(=O)OCCN(CC)CC
Propofol,11.1,178.2707,2.69883514915,-0.541715738867,0.605644563556,16.5021578908,-0.504809977787,-0.80172997741,0.129999993069,0.572309970576,-0.121460000353,-0.290419996064,CC(C)c1cccc(c1O)C(C)C
Propranolol,9.42,259.3434,1.35959269344,194.691194153,0.712873641337,8.62053024145,-0.832650006702,-0.974179983885,0.160714997957,0.268140002339,-0.221815002104,-0.2502874963,CC(C)NC[C@@H](COc1cccc2c1cccc2)O
Prucalopride,8.5,367.87,1.34931265811,191.824897448,0.721406629639,10.0983354257,-0.560410023064,-0.585690020472,0.399929992526,0.338875004202,-0.315354004831,-0.321620002836,COCCCN1CCC(CC1)NC(=O)c2cc(c(c3c2OCC3)N)Cl
Putrescine,10.8,88.1515,0.29093078185,928.85447865,0.705434157908,9.60573369762,-0.901960013227,-1.09131002338,0.151750000401,0.307469994706,-0.118009997325,-0.151529996711,C(CCN)CN
Pyrazole,2.48,68.0773,1.73200564201,-6.39072087996,0.721149527259,12.3150432021,-0.0250700037513,-0.46237999294,-0.334144990477,-0.146564998664,-0.0107233321501,-0.245490000583,c1c[nH]nc1
Pyrimethamine,7.34,248.711,0.514776499943,-4.48103848843,0.708609557268,11.0835388819,-0.967649996498,-0.783039987922,0.932120024941,0.669189988732,-0.820710003593,-0.674910009742,CCc1c(c(nc(n1)N)N)c2ccc(cc2)Cl
Pyruvic acid,2.45,88.0621,2.80896103587,289.743388995,0.573249240578,17.733662211,-0.573019982129,-0.585179983742,0.531589984149,0.448509991997,0.00252500101924,0.316889994674,CC(=O)C(=O)O
Quetiapine,7.06,383.507,-3.87418836555,574.21532212,0.598315017183,17.2410604829,-0.591359975636,-0.899479986294,0.131129992306,0.428570001261,0.126589995921,0.0429499995571,c1ccc2c(c1)C(=Nc3ccccc3S2)N4CCN(CC4)CCOCCO
Quinacrine,10.3,399.957,-6.03463551484,532.416106116,0.698662652291,7.88162764933,-0.733569980567,-0.611069978509,0.195715001816,0.256319998469,-0.255701995795,-0.26890199307,CCN(CC)CCC[C@H](C)Nc1c2ccc(cc2nc3c1cc(cc3)OC)Cl
Quinapril,2.8,438.5161,5.87818358277,119.813811347,0.727835932686,7.63532678528,-0.800080001715,-0.909219981614,0.132755003509,0.229264995572,0.0540559943886,0.0398980037538,CCOC(=O)[C@H](CCc1ccccc1)N[C@@H](C)C(=O)N2Cc3ccccc3C[C@H]2C(=O)O
Quinolinic Acid,2.43,167.1189,5.65588285181,916.415950331,0.586641599026,15.2706535706,-0.569180009996,-0.51828002651,0.547950031126,0.551140013144,-0.0506800097578,-0.126610008076,c1cc(c(nc1)C(=O)O)C(=O)O
Ranolazine,2.2,427.5365,5.54792233124,180.964888252,0.595782199489,15.2706535706,-0.589209973055,-0.562009990422,0.141330004495,0.656440019401,0.138519995671,-0.192319993137,Cc1cccc(c1NC(=O)CN2CCN(CC2)C[C@H](COc3ccccc3OC)O)C
Rilpivirine,5.6,366.4185,0.52838937616,-5.48277044561,0.717737695461,8.37422937741,-0.777939976598,-0.62661999553,0.436230002498,0.467495000963,-0.43874199524,-0.445304001268,Cc1cc(cc(c1Nc2ccnc(n2)Nc3ccc(cc3)C#N)C)/C=C/C#N
Roflumilast,8.74,403.207,-6.79202076674,1.63770604778,0.715354766605,11.0835388819,-0.476579993684,-0.519819976714,0.391180008929,0.424440002117,-0.281994005758,-0.327385994372,c1cc(c(cc1C(=O)Nc2c(cncc2Cl)Cl)OCC3CC3)OC(F)F
Ropinirole,10.17,260.3746,1.40600310712,189.137280602,0.702387867003,11.822441474,-0.483319999044,-0.437959997604,0.381655013795,0.367974986633,-0.30138199902,-0.353152002643,CCCN(CCC)CCc1cccc2c1CC(=O)N2
Ropivacaine,8.07,274.4011,-8.92848976795,154.415977421,0.696862637908,8.37422937741,-0.496749995722,-0.54895001623,0.355944992529,0.386170007558,-0.218120001329,-0.289292004435,CCC[N@]1CCCC[C@H]1C(=O)Nc2c(cccc2C)C
Salicylamide,8.37,137.136,2.80673259657,18.1923699262,0.69888947137,8.37422937741,-0.671360015431,-0.702180025401,0.688390016994,0.55366999167,-0.381999991396,-0.44166499679,c1ccc(c(c1)C(=O)N)O
Salicylic acid,2.97,138.1207,3.8436367828,299.089637799,0.584611741072,14.7780518425,-0.616289974656,-0.824440002441,0.660619972739,0.913139998913,-0.346579992678,-0.484219998121,c1ccc(c(c1)C(=O)O)O
Secobarbital,7.8,238.2829,3.01638088662,-10.5133315715,0.6985808209,11.5761406099,-0.596849976161,-0.55163997724,0.763989986799,0.726090010858,-0.512141991832,-0.562565988445,CCC[C@@H](C)C1(C(=O)NC(=O)NC1=O)CC=C
Sertraline,9.16,306.23,-1.22183270502,204.846302186,0.737139260613,8.86683110549,-0.820729971586,-0.942309976918,0.186199999691,0.283325000304,-0.334806656498,-0.349093325488,CN[C@H]1CC[C@H](c2c1cccc2)c3ccc(c(c3)Cl)Cl
Succinic acid,4.21,118.088,5.90484220185,970.091926251,0.578667437309,17.4873613469,-0.606750003994,-0.842100018492,0.63898999244,0.914850002298,-0.338079996407,-0.522250005832,C(CC(=O)O)C(=O)O
Sulfadiazine,6.36,250.277,2.84015139602,187.755878742,0.720571823834,10.8372380178,-0.872160017214,-0.653240019527,0.262089997806,0.195140009674,-0.247130006276,-0.278829986301,c1cnc(nc1)NS(=O)(=O)c2ccc(cc2)N
Sulfamethazine,7.59,278.33,1.24654568867,191.819680293,0.718321381166,13.5465475223,-0.861829996335,-0.940590021084,1.2063450215,1.30918997817,-0.67317000054,-0.710711674959,Cc1cc(nc(n1)NS(=O)(=O)c2ccc(cc2)N)C
Sulfanilamide,10.6,172.205,1.7178626507,-6.72074521843,0.71232049885,11.0835388819,-0.850430009396,-0.66939997673,0.237450005977,0.201110005379,-0.238330004247,-0.290459990501,c1cc(ccc1N)S(=O)(=O)N
Sulfapyridine,8.43,249.289,0.0711902779489,2.56349754946,0.710479308097,11.3298397459,-0.857190014794,-0.654820027347,0.242379991338,0.196919990186,-0.24010999687,-0.284150006767,c1ccnc(c1)NS(=O)(=O)c2ccc(cc2)N
Sulfisoxazole,5.0,267.304,3.47603422555,0.220555829028,0.692619463696,14.0391492504,-0.837880017987,-0.988860011675,1.02176001407,1.17785000744,-0.518673330676,-0.577761665561,Cc1c(noc1NS(=O)(=O)c2ccc(cc2)N)C
Sulindac,4.7,356.411,5.36793830976,269.960107655,0.574616265269,17.733662211,-0.616509972539,-0.823329985255,0.634329976115,0.927990019208,-0.301945006874,-0.506544992441,CC\1=C(c2cc(ccc2/C1=C\c3ccc(cc3)[S@@](=O)C)F)CC(=O)O
Sumatriptan,4.9,295.4,2.62074395181,207.862727204,0.723177137062,12.068742338,-0.916019977786,-0.966700016556,0.815030006908,0.84749999732,-0.609602490224,-0.664012505708,CNS(=O)(=O)Cc1ccc2c(c1)c(c[nH]2)CCN(C)C
Tacrine,9.95,198.2637,1.69398024189,167.971528386,0.699395261059,8.37422937741,-0.830399992009,-0.69441998098,0.19473999546,0.212559997104,-0.229630002816,-0.331224993803,c1ccc2c(c1)c(c3c(n2)CCCC3)N
Tafenoquine,9.5,463.501,1.41805612983,250.954207315,0.701449493148,11.5761406099,-0.73249000246,-0.659900007878,0.178975001626,0.446019993986,-0.163326002009,-0.24819000337,Cc1cc(nc2c1c(c(cc2N[C@H](C)CCCN)OC)Oc3cccc(c3)C(F)(F)F)OC
Tafluprost,6.1,452.5313,11.5474087098,1.41601416213,0.607258254846,14.0391492504,-0.594370007459,-0.552339971173,0.152419999298,0.632799982917,-0.101849999222,-0.286059998083,CC(C)OC(=O)CCC/C=C\C[C@H]1[C@H](C[C@H]([C@@H]1/C=C/C(COc2ccccc2)(F)F)O)O
Talbutal,7.79,224.2563,2.97872911961,-11.4543513878,0.711847784464,11.0835388819,-0.598249971867,-0.551580010102,0.764734983444,0.726525010421,-0.512911993265,-0.563626007483,CC[C@@H](C)C1(C(=O)NC(=O)NC1=O)CC=C
Tapentadol,9.895,221.3385,3.17895609629,188.971733801,0.602840055616,17.979963075,-0.499900012301,-0.806230009105,0.124270000471,0.553070008252,-0.184939994501,-0.33414000323,CC[C@@H](c1cccc(c1)O)[C@@H](C)CN(C)C
Taurine,1.5,125.147,6.39571864174,186.612132915,0.596121331467,18.2262639391,-0.764079980552,-0.755469985879,1.62653995305,1.74099003466,-0.579430006444,-0.865356671887,C(CS(=O)(=O)O)N
Tazobactam,2.1,300.291,0.493259786872,244.934254121,0.579713367597,17.733662211,-0.56129002299,-0.558189986935,0.648850026468,0.656499983082,-0.254384991786,-0.235554999401,C[C@@]1([C@@H](N2[C@H](S1(=O)=O)CC2=O)C(=O)O)Cn3ccnn3
Tedizolid,1.8,370.344,1.41938864094,3.85762155632,0.614304031844,17.2410604829,-0.590610025051,-0.646019996757,0.12244000512,0.824079988842,0.103079999265,-0.365934999342,Cn1nc(nn1)c2ccc(cn2)c3ccc(cc3F)N4C[C@@H](OC4=O)CO
Tenamfetamine,9.67,179.2157,0.193358008762,253.064653197,0.728411190819,10.5909371538,-0.906140030147,-1.03876996003,0.164869993209,0.301759988447,-0.0845049999368,-0.107770003001,C[C@@H](Cc1ccc2c(c1)OCO2)N
Tenofovir alafenamide,3.96,476.474,-2.36880564044,7.24833243662,0.698804004764,12.068742338,-0.987950026869,-1.11705005143,0.899795025707,0.980100021026,-0.33368667824,-0.362198343862,C[C@H](Cn1cnc2c1ncnc2N)OC[P@@](=O)(N[C@@H](C)C(=O)OC(C)C)Oc3ccccc3
Theobromine,9.9,180.164,-1.20366567717,-3.17704609978,0.695863819197,12.3150432021,-0.580309988753,-0.721989984624,0.788594989283,0.407429997809,-0.521797998445,-0.425942490809,Cn1cnc2c1c(=O)[nH]c(=O)n2C
Theophylline,8.81,180.164,-0.616897323048,-2.15940770283,0.719814333488,12.8076449302,-0.268330002824,-0.664870021911,0.0503149976333,0.254750005854,0.0712099944552,-0.113902507396,Cn1c2c(c(=O)n(c1=O)C)[nH]cn2