Name,pKa,Weight,∆H,∆G_solv,Bond Order,SASA,Charge_0p,Charge_0d,Charge_1p,Charge_1d,Charge_2p,Charge_2d,smiles
methyclothiazide,9.4,360.22,-0.793388381691,3.25631225303,0.714946216558,9.85203456166,-0.79657000111,-0.556940021366,0.402799995676,0.33076999858,-0.447655996248,-0.405384001881,C[N@]1[C@@H](Nc2cc(c(cc2S1(=O)=O)S(=O)(=O)N)Cl)CCl
sulpiride,10.21,341.4,3.1516229632,204.826512184,0.692297881555,9.85203456166,-0.539030012826,-0.592480003234,0.376449997385,0.329985004519,-0.291252502392,-0.324665000062,CC[N@]1CCC[C@H]1CNC(=O)c2cc(ccc2OC)S(=O)(=O)N
celecoxib,11.1,381.4,0.218694605269,-13.7433846662,0.689077819996,11.822441474,-1.0286099907,-1.31288003726,1.52560997047,1.65715003209,-0.558303316062,-0.574736672669,Cc1ccc(cc1)c2cc(nn2c3ccc(cc3)S(=O)(=O)N)C(F)(F)F
metolazone,9.7,365.8,0.808264699758,3.84955720532,0.713288813354,10.8372380178,-0.741980013624,-0.550409976584,0.316864999756,0.292334992248,-0.354740003124,-0.335037996811,Cc1ccccc1N2[C@@H](Nc3cc(c(cc3C2=O)S(=O)(=O)N)Cl)C
polythiazide,9.1,439.9,0.230972867459,-13.9876300841,0.726988817684,11.3298397459,-0.798410003319,-0.566169981115,0.412410001025,0.343865003235,-0.458234001382,-0.419301989876,C[N@]1[C@@H](Nc2cc(c(cc2S1(=O)=O)S(=O)(=O)N)Cl)CSCC(F)(F)F
chlorothiazide,9.7,295.7,0.579328097676,-1.71789342671,0.712125608237,11.822441474,-1.027780056,-1.30472003753,1.52725994587,1.65217996304,-0.564649989208,-0.567103329651,c1c2c(cc(c1Cl)S(=O)(=O)N)S(=O)(=O)N=CN2
piretanide,10.22,362.4,0.754268005076,261.173890385,0.571441164091,16.0095561627,-0.610679986475,-0.816770015417,0.649680016043,0.91060000831,-0.329685001223,-0.475595003127,c1ccc(cc1)Oc2c(cc(cc2S(=O)(=O)N)C(=O)O)N3CCCC3
(S)-Mandelic acid,3.41,152.1473,3.34692055304,274.620064086,0.585942679176,17.2410604829,-0.594070015769,-0.617950019944,0.59876001038,0.544250013721,-0.192169999998,-0.111705002892,c1ccc(cc1)[C@@H](C(=O)O)O
1-Aminocyclopropanecarboxylic Acid,2.73,101.1039,2.13586139852,174.32140838,0.584528224724,16.0095561627,-0.602680027485,-0.631380018707,0.678470015526,0.697629991059,-0.230505004525,-0.166474980231,C1CC1(C(=O)O)N
1-Methylimidazole,6.95,83.1118,-0.0497005026237,-0.763702373828,0.712301903975,12.3150432021,-0.134469999072,-0.668100000359,-0.0651999992104,0.339775010012,-0.087539999507,-0.379836669502,Cn1cc[nH+]c1
1-naphthaleneacetic acid,4.23,186.2066,4.62070646919,292.295277279,0.574623407994,17.979963075,-0.618780016395,-0.831239998017,0.631060004739,0.924679994907,-0.305879994722,-0.510880000565,c1ccc2c(c1)cccc2CC(=O)O
"1,2-Dihydroxybenzene",9.45,110.1106,3.52068802446,6.58273777625,0.593006876116,17.2410604829,-0.506730020046,-0.82899999332,0.0748599991202,0.518909993653,-0.038219999522,-0.209454999234,c1ccc(c(c1)O)O
2-Aminophenol,4.84,109.1259,1.92941903153,-6.71623631617,0.708738117353,9.60573369762,-0.805310009172,-0.742290019191,0.119549998889,0.186360002362,-0.0514250026395,-0.213464996911,c1ccc(c(c1)N)O
2-Bromoacetyl Group,2.89,138.948,3.0657400283,298.406226593,0.571885850431,17.4873613469,-0.605929974467,-0.826479978859,0.637239988893,0.918319992721,-0.302204996347,-0.459809992462,C(C(=O)O)Br
2-Fluoroaniline,3.2,111.1169,0.98489943917,-0.164341711584,0.715221407849,9.60573369762,-0.81357001939,-0.728070019529,0.113390001867,0.194069997622,-0.0588799943881,-0.207804999099,c1ccc(c(c1)N)F
"2,4-Dinitrophenol",4.09,184.1064,2.19303911697,217.362547105,0.606036424709,17.2410604829,-0.464690002024,-0.684010024648,0.217079994858,0.602570001502,-0.214690002024,-0.325424994808,c1cc(c(cc1[N+](=O)[O-])[N+](=O)[O-])O
"2,4,6-Tribromophenol",6.8,327.773401016,3.97678172225,236.175583575,0.579496637841,18.7188656671,-0.470580009887,-0.70567000269,0.199739994338,0.600570019492,-0.093909999499,-0.199949998251,c1c(cc(c(c1Br)O)Br)Br
"2,5-Xylidine",4.53,121.1796,0.571201354179,-3.83295840025,0.713674365498,9.60573369762,-0.821420012787,-0.742709994549,0.14275999479,0.209820002085,-0.165744996443,-0.296220004791,Cc1ccc(c(c1)N)C
3-Chlorophenol,9.12,128.556,2.94817800802,-4.77658512446,0.60510585202,17.733662211,-0.492920008416,-0.793590009833,0.133959996586,0.560880004739,-0.184349995966,-0.336950004722,c1cc(cc(c1)Cl)O
3-phenylpropionic acid,4.66,150.1745,1.00788232633,305.756303183,0.571411142857,17.4873613469,-0.610069989803,-0.849579991307,0.631919980404,0.909370003734,-0.33688499743,-0.521579997148,c1ccc(cc1)CCC(=O)O
Acemetacin,2.6,415.83,3.89820881262,294.402388085,0.584665935004,14.0391492504,-0.611729980585,-0.550520001101,0.631860016706,0.696169974161,-0.212800012109,-0.198975002515,Cc1c(c2cc(ccc2n1C(=O)c3ccc(cc3)Cl)OC)CC(=O)OCC(=O)O
Acetamide,0.63,59.0672,4.39583695899,-0.356219705151,0.713410280703,10.8372380178,-0.683089974026,-0.713720024214,0.657149968048,0.541010021581,-0.393294999997,-0.500960000441,CC(=O)N
Acetic acid,4.76,60.052,-1.41960273272,330.613298742,0.58296050085,17.4873613469,-0.611459970474,-0.861240021153,0.636009991169,0.901730009155,-0.3508400172,-0.530520006283,CC(=O)O
Acetohydroxamic acid,8.7,75.0666,0.0399488831857,-9.24062000952,0.720846018217,11.0835388819,-0.38348999992,-0.474220006002,0.0895950011909,0.0301049964295,-0.369133327156,-0.473129995995,CC(=O)NO
Acetylsalicylic acid,3.5,180.1574,3.57030731257,279.023317509,0.589618565948,16.5021578908,-0.606750010912,-0.524209972844,0.658230007227,0.644739988819,-0.338029995028,-0.254394997284,CC(=O)Oc1ccccc1C(=O)O
Acrylic Acid,4.26,72.0627,1.23900431262,315.961742912,0.585041284916,17.979963075,-0.606679980954,-0.845549996011,0.634209985534,0.888279979117,-0.381594998141,-0.524149994366,C=CC(=O)O
Adenine,4.15,135.1267,2.08197313588,-10.6725301029,0.704613358165,12.5613440661,-0.658249972016,-0.904959984523,0.15414499715,0.673075012464,-0.00850999131799,-0.707100004357,c1[nH]c2c(ncnc2n1)N
Alanine,2.34,89.0932,-0.136098682051,176.859261354,0.581244287158,14.5317509784,-0.605000018214,-0.65328001425,0.642430008317,0.538940017965,-0.209979987775,-0.198225000951,C[C@@H](C(=O)O)N
Alectinib,7.05,482.6166,7.34540180494,197.79676318,0.718763454325,11.822441474,-0.564930021191,-0.366340011466,0.0969450013845,0.0262849986405,-0.173992004418,-0.142614000212,CCc1cc2c(cc1N3CCC(CC3)N4CCOCC4)C(c5c(c6ccc(cc6[nH]5)C#N)C2=O)(C)C
Allopurinol,10.2,136.1115,1.99284699554,-5.55814254719,0.709348786615,12.068742338,-0.486739994958,-0.562520022504,0.0827350001782,-0.030999998562,-0.315162504092,-0.187023336999,c1c2c([nH]n1)ncnc2O
Ambrisentan,4.0,378.428,2.4269950765,274.161706107,0.584732236,16.7484587548,-0.572790024728,-0.802919985289,0.637290002853,0.914359985357,-0.233564993292,-0.408204993262,Cc1cc(nc(n1)O[C@H](C(=O)O)C(c2ccccc2)(c3ccccc3)OC)C
Aminobenzoic acid,2.38,137.136,0.800458956519,282.896948701,0.574030687858,15.7632552987,-0.614120005246,-0.668619993496,0.658630014781,0.675249990654,-0.378870009061,-0.505389991569,c1cc(ccc1C(=O)O)N
Aminocaproic acid,4.43,131.1729,12.2648662684,285.737031366,0.565416195556,14.7780518425,-0.611729982224,-0.559440014973,0.634069976482,0.634769977913,-0.338084991005,-0.375000013127,C(CCC(=O)O)CCN
Amisulpride,9.37,369.479,1.07499105574,170.489231604,0.733486402657,9.60573369762,-0.543129979561,-0.584930002037,0.381350000461,0.33115000343,-0.304154998551,-0.33033500174,CC[N@]1CCC[C@H]1CNC(=O)c2cc(c(cc2OC)N)S(=O)(=O)CC
Amobarbital,7.84,226.2722,0.834608029164,-0.84544611189,0.705007963609,12.5613440661,-0.598190007403,-0.55260002709,0.76454499583,0.724090008968,-0.515100000097,-0.567617998487,CCC1(C(=O)NC(=O)NC1=O)CCC(C)C
Amphetamine,9.9,135.2062,0.171483599679,249.581478994,0.713059529727,9.85203456166,-0.906030000876,-1.09835004455,0.165710000564,0.309199992356,-0.0859599986478,-0.088824998799,C[C@@H](Cc1ccccc1)N
Aniline,4.6,93.1265,0.785149738097,-2.77094092194,0.714624008252,10.5909371538,-0.817650016929,-0.750500019353,0.135160002325,0.199829999644,-0.18989999273,-0.318960006994,c1ccc(cc1)N
Apremilast,12.58,460.5,0.79124500856,20.0743139031,0.706211870579,12.5613440661,-0.473569990668,-0.551370024004,0.41204499307,0.458890021525,-0.320898000869,-0.3766800069,CCOc1cc(ccc1OC)[C@@H](CS(=O)(=O)C)N2C(=O)c3cccc(c3C2=O)NC(=O)C
Aprobarbital,7.99,210.2298,2.18253614718,-10.6842477545,0.701970251561,12.3150432021,-0.597130005087,-0.550490021306,0.76502501515,0.726610005301,-0.512913997497,-0.563568004567,CC(C)C1(C(=O)NC(=O)NC1=O)CC=C
Aripiprazole,7.6,448.385,8.95578997276,198.963613604,0.717658291175,12.5613440661,-0.474269987362,-0.457800000738,0.406594997925,0.409404985775,-0.331675998586,-0.373383998702,c1cc(c(c(c1)Cl)Cl)N2CCN(CC2)CCCCOc3ccc4c(c3)NC(=O)CC4
Atomoxetine,10.13,255.3547,1.11577742186,213.700900754,0.731382497779,9.85203456166,-0.830579996062,-0.974380016613,0.159595005261,0.284354999375,-0.457274999423,-0.518655009854,Cc1ccccc1O[C@H](CCNC)c2ccccc2
Axitinib,4.8,386.47,4.95773586181,-5.46675691597,0.72028580469,10.5909371538,-0.574339985939,-0.592490017838,0.375554993658,0.313149999403,-0.421290000371,-0.448116664268,CNC(=O)c1ccccc1Sc2ccc3c(c2)[nH]nc3/C=C/c4ccccn4
Azathioprine,7.87,277.263,0.149961801428,17.0990350106,0.719525928884,12.3150432021,-0.662989979198,-0.624930021558,0.190394992421,0.321525010075,-0.0547324917816,-0.147395006586,Cn1cnc(c1Sc2c3c(nc[nH]3)ncn2)[N+](=O)[O-]
Azelaic acid,4.55,188.2209,16.8223799013,822.017816607,0.585641581192,16.0095561627,-0.613730013114,-0.557330010459,0.633870005865,0.635940017179,-0.337195008736,-0.373019995168,C(CCCC(=O)O)CCCC(=O)O
Barbital,8.14,184.1925,1.0035121584,-9.51486215884,0.695750094826,11.5761406099,-0.601040005088,-0.551999986172,0.764990002513,0.725575000048,-0.51334600091,-0.568174001575,CCC1(C(=O)NC(=O)NC1=O)CC
Benzimidazole,5.3,118.1359,2.79467483177,-2.28920080181,0.716394816779,11.822441474,-0.687640011559,-0.598219992526,0.292134990667,0.211109997771,-0.331662500526,-0.325599996307,c1ccc2c(c1)[nH]cn2
Benzocaine,2.51,165.1891,0.880338221318,-3.66493154014,0.709932392033,10.8372380178,-0.833019970876,-0.686720013295,0.187989995855,0.197789997186,-0.21805000208,-0.306129991685,CCOC(=O)c1ccc(cc1)N
Benzoic acid,4.19,122.123,4.30607360507,291.882646508,0.570948212658,16.5021578908,-0.608940005302,-0.83432000769,0.650849997997,0.905690015427,-0.345804996789,-0.479905000755,c1ccc(cc1)C(=O)O
Benzthiazide,6.0,431.937,6.21590464165,-4.31057721079,0.709159242216,11.5761406099,-1.02699995367,-1.30041003399,1.52496003779,1.64576005764,-0.560730013531,-0.555033347737,c1ccc(cc1)CSCC2=Nc3cc(c(cc3S(=O)(=O)N2)S(=O)(=O)N)Cl
Benzylamine,9.33,107.1531,-1.35888144648,249.582485367,0.716247329405,11.3298397459,-0.896719992599,-1.06493997667,0.191070004859,0.320989995264,-0.13367000266,-0.0802000025287,c1ccc(cc1)CN
Benzylpenicillin,2.74,334.39,-1.24176914388,271.237300762,0.7244842715,11.822441474,-0.557519973506,-0.594309986429,0.354424996983,0.352029989613,-0.0951399919282,-0.135651991563,CC1([C@@H](N2[C@H](S1)[C@@H](C2=O)NC(=O)Cc3ccccc3)C(=O)O)C
Besifloxacin,6.5,393.84,0.943331077529,378.073947904,0.71241193789,9.35943283357,-0.903890015131,-1.0505199454,0.130820004696,0.295960006938,0.0742699936576,-0.00878500036816,c1c2c(c(c(c1F)[N@]3CCCC[C@H](C3)N)Cl)n(cc(c2=O)C(=O)O)C4CC4
beta-Alanine,3.63,89.0932,-1.28626416405,245.932882502,0.704499124338,10.5909371538,-0.903590023518,-1.06368004965,0.159830003977,0.304329994445,-0.178189992905,-0.231240001197,C(CN)C(=O)O
Betahistine,10.1,136.1943,-0.00973601794996,220.583195086,0.714364085042,11.0835388819,-0.819809974171,-0.97000998304,0.153819999658,0.285250007652,-0.477409989573,-0.552999988653,CNCCc1ccccn1
Betaxolol,9.4,307.4278,1.2155918974,193.584949111,0.743410198158,8.86683110549,-0.837549984419,-0.942340016412,0.163364999033,0.293774992181,-0.222632493787,-0.24343500291,CC(C)NC[C@@H](COc1ccc(cc1)CCOCC2CC2)O
Bicalutamide,12.0,430.373,4.05984061964,-15.7729228758,0.604478095799,12.3150432021,-0.581099986662,-0.613149998887,0.132569998871,0.604789973991,0.0742566614058,-0.0208450091914,C[C@](CS(=O)(=O)c1ccc(cc1)F)(C(=O)Nc2ccc(c(c2)C(F)(F)F)C#N)O
Bisoprolol,9.5,325.443,3.84994122114,211.767875734,0.719553368989,10.3446362897,-0.828279972163,-0.941219984396,0.160474993202,0.290239990847,-0.21984499329,-0.244312493904,CC(C)NC[C@@H](COc1ccc(cc1)COCCOC(C)C)O
Bithionol,4.82,353.884261152,4.58380478322,0.471538459912,0.595298065304,17.2410604829,-0.473930001408,-0.70208001032,0.188490003198,0.604489983176,-0.0731500016153,-0.206979996408,c1c(cc(c(c1Sc2cc(cc(c2O)Cl)Cl)O)Cl)Cl
Brimonidine,7.78,292.135,0.570611179294,166.166838947,0.693551335928,10.8372380178,-0.706219972008,-0.619710024858,0.480599991149,0.23089000169,-0.486477992766,-0.0371400047488,c1cc(c(c2c1nccn2)Br)NC3=NCCN3
Bromotheophylline,5.45,259.063,-1.06847407382,-2.28294926636,0.718962082278,12.5613440661,-0.243599994019,-0.619239988737,0.0730749984227,0.293200009502,0.057323997929,-0.110409998707,Cn1c2c(c(=O)n(c1=O)C)[nH]c(n2)Br
Bupivacaine,8.1,288.4277,-1.82996183004,163.964324176,0.70897390499,9.60573369762,-0.497630000875,-0.550450027455,0.355294988662,0.385955005419,-0.217967995271,-0.289688003529,CCCC[N@]1CCCC[C@H]1C(=O)Nc2c(cccc2C)C
Buprenorphine,8.31,467.6401,2.06860260831,165.203363629,0.595112704448,11.0835388819,-0.493930011615,-0.857150018142,0.105870001391,0.438069999292,-0.045249998197,-0.127156662371,C[C@]([C@H]1C[C@@]23CC[C@@]1([C@H]4[C@@]25CC[N@]([C@@H]3Cc6c5c(c(cc6)O)O4)CC7CC7)OC)(C(C)(C)C)O
Butamben,2.472,193.246,0.881637654334,-1.00356656227,0.708210027491,10.5909371538,-0.835349976117,-0.686439991149,0.191459999388,0.19727000579,-0.220620005424,-0.305099994096,CCCCOC(=O)c1ccc(cc1)N
Butenoic Acid,4.17,86.0892,1.22128939756,311.090749616,0.571680980946,17.979963075,-0.6060100204,-0.844439984723,0.63519000945,0.88973998888,-0.393839985753,-0.519439996643,C/C=C/C(=O)O
Butobarbital,7.86,212.2456,1.19477107399,2.43661361245,0.716243502487,12.068742338,-0.598630006515,-0.551329970794,0.764404986895,0.726244985623,-0.513848005139,-0.567065996366,CCCCC1(C(=O)NC(=O)NC1=O)CC
Butyric Acid,4.82,88.1051,2.22560544831,317.560749647,0.573294267644,15.0243527065,-0.612290026354,-0.855059984785,0.632910011602,0.907039996523,-0.337564991521,-0.524239990574,CCCC(=O)O
Capric acid,4.9,172.2646,2.53202273262,309.809991445,0.584901208423,14.7780518425,-0.612969995011,-0.853869976235,0.634079992305,0.90579998331,-0.337739989627,-0.524594986571,CCCCCCCCCC(=O)O
Caprylic acid,4.89,144.2114,1.31668881274,312.231929557,0.591057346872,17.733662211,-0.613390026614,-0.853829980493,0.6342399735,0.906409978271,-0.337719989941,-0.52344498843,CCCCCCCC(=O)O
Cefapirin,2.15,423.463,6.92381535943,262.335081378,0.721558119433,12.3150432021,-0.549319985674,-0.589799999513,0.365440000428,0.373394989155,-0.0915920050608,-0.124403999069,CC(=O)OCC1=C(N2[C@@H]([C@@H](C2=O)NC(=O)CSc3ccncc3)SC1)C(=O)O
Cetirizine,1.52,388.888,14.787995745,234.739905395,0.586635798176,17.733662211,-0.620019971823,-0.832319975338,0.63573998263,0.923590004006,-0.215570006018,-0.414844987887,c1ccc(cc1)[C@H](c2ccc(cc2)Cl)N3CCN(CC3)CCOCC(=O)O
Chlorambucil,5.75,304.212,3.17263230704,293.183965825,0.572973499855,14.2854501144,-0.615939974344,-0.851840017162,0.634570002997,0.905260028519,-0.336965009129,-0.524905008994,c1cc(ccc1CCCC(=O)O)N(CCCl)CCCl
Chlordiazepoxide,4.8,299.755,0.389732612582,174.238539247,0.708037149841,10.5909371538,-0.82559001475,-0.63249999293,0.41544999898,0.389940000988,-0.541206668113,-0.51600999145,CNC1=Nc2ccc(cc2C(=[N+](C1)[O-])c3ccccc3)Cl
Chloroquine,10.1,319.872,-3.11953731009,566.12877305,0.736738226961,9.11313196953,-0.762030005377,-0.621879994899,0.22375000276,0.221025004953,-0.299734000784,-0.295487999946,CCN(CC)CCC[C@H](C)Nc1ccnc2c1ccc(c2)Cl
Chlorpropamide,5.13,276.74,0.479514395475,-3.68116648928,0.712540509084,11.822441474,-0.540899990258,-0.583310008314,0.436185011508,0.404955010596,-0.487789999826,-0.544810010385,CCCNC(=O)NS(=O)(=O)c1ccc(cc1)Cl
Cilnidipine,11.39,492.528,-2.76107060126,-16.8099205212,0.720628517957,11.822441474,-0.642579972744,-0.50441002828,0.181629993021,0.193934999584,-0.254023993015,-0.280572005929,CC1=C([C@@H](C(=C(N1)C)C(=O)OC/C=C/c2ccccc2)c3cccc(c3)[N+](=O)[O-])C(=O)OCCOC
Cinchocaine,8.85,343.4632,-1.27135696711,185.449292659,0.700561203591,9.85203456166,-0.561160027498,-0.782310009161,0.357315002492,0.527535006246,-0.269452506193,-0.369839999238,CCCCOc1cc(c2ccccc2n1)C(=O)NCCN(CC)CC
Ciprofloxacin,6.09,331.3415,1.31742722834,335.550946001,0.573524725978,15.5169544346,-0.563750027191,-0.538529992558,0.66966998719,0.590049981617,-0.45843499757,-0.246174999036,c1c2c(cc(c1F)N3CCNCC3)n(cc(c2=O)C(=O)O)C4CC4
Clavulanic acid,2.7,199.1608,2.56787619344,274.53186034,0.605544181587,17.4873613469,-0.600269972954,-0.581789973107,0.170230001535,0.667789992961,-0.165380000744,-0.290759998289,C1[C@@H]2N(C1=O)[C@H](/C(=C/CO)/O2)C(=O)O
Clofazimine,8.51,473.396,-1.06795486938,-4.12910536584,0.701413605182,9.35943283357,-0.643459975423,-0.619220018197,0.081194997363,0.339649994116,-0.133113994898,-0.198688004721,CC(C)N=c1cc-2n(c3ccccc3nc2cc1Nc4ccc(cc4)Cl)c5ccc(cc5)Cl
Clonidine,8.05,230.094,-0.739165591507,151.40945782,0.708163158713,12.3150432021,-0.657500028772,-0.657410025321,0.419990010398,0.521359980382,-0.412454011453,-0.466633996837,c1cc(c(c(c1)Cl)NC2=NCCN2)Cl
Cloxacillin,2.78,435.881,1.05581492265,256.002607312,0.723992596379,12.068742338,-0.55257999679,-0.550629974788,0.378609989155,0.349200012648,-0.155992002096,-0.165153999513,Cc1c(c(no1)c2ccccc2Cl)C(=O)N[C@H]3[C@@H]4N(C3=O)[C@H](C(S4)(C)C)C(=O)O
Clozapine,7.5,326.823,2.82600027056,605.110862789,0.730599428059,11.3298397459,-0.595939994562,-0.643610001156,0.123309999,0.362625013492,-0.195517999638,-0.317120004245,CN1CCN(CC1)C2=Nc3cc(ccc3Nc4c2cccc4)Cl
Codeine,8.2,299.3642,4.25612459674,192.382332037,0.612378213802,16.0095561627,-0.588710010268,-0.837040006981,0.167180001519,0.442669987812,-0.0225000011107,-0.0329699962001,C[N@@]1CC[C@]23c4c5ccc(c4O[C@H]2[C@H](C=C[C@H]3[C@H]1C5)O)OC
Colchicine,12.36,399.437,3.23933227463,-1.53837418745,0.719850866947,7.88162764933,-0.579190015827,-0.608739974021,0.402779996361,0.348185012073,-0.294254000147,-0.316549991488,CC(=O)N[C@@H]1CCc2cc(c(c(c2-c3c1cc(=O)c(cc3)OC)OC)OC)OC
Cyanamide,1.03,42.04,1.92160191356,-3.67624156198,0.702910297569,11.0835388819,-0.730369985104,-0.822189994156,0.304439991713,0.325700007379,-0.393449991941,-0.7781400159,C(#N)N
Cycloleucine,2.62,129.157,-0.272625250429,167.275663377,0.580644371752,15.5169544346,-0.60641002655,-0.67561000762,0.637260019779,0.536530016088,-0.199260003865,-0.168655009842,C1CCC(C1)(C(=O)O)N
D-Lactic acid,3.83,90.0779,2.65813273043,288.656688551,0.580441406046,17.4873613469,-0.596360028721,-0.656530017711,0.595549999736,0.563390021466,-0.218774986453,-0.12310000763,C[C@H](C(=O)O)O
Dalfampridine,11.0,94.1145,0.835485353561,211.96635996,0.721324440038,11.0835388819,-0.835160016727,-0.736989973734,0.187560007263,0.203820006301,-0.317389994573,-0.422179995726,c1cnccc1N
Dapsone,2.41,248.301,2.5307118212,3.66597418201,0.710666387727,10.8372380178,-0.849269985125,-0.663689971363,0.230430008009,0.199369996393,-0.236650003955,-0.286080003178,c1cc(ccc1N)S(=O)(=O)c2ccc(cc2)N
Deferiprone,3.5,139.1519,1.28002011515,259.966922554,0.605272946707,17.2410604829,-0.499540004879,-0.651750025611,-0.0514400042593,0.510829987664,0.314850006253,-0.017465007763,Cc1c(c(=O)ccn1C)O
Deflazacort,5.52,441.524,0.73046755547,1.2498169178,0.619803403456,17.2410604829,-0.602959989529,-0.598659993247,0.147689999122,0.574970005914,-0.0681199980493,-0.297594995336,CC1=N[C@@]2([C@H](O1)C[C@@H]3[C@@]2(C[C@@H]([C@H]4[C@H]3CCC5=CC(=O)C=C[C@]45C)O)C)C(=O)COC(=O)C
Dehydroascorbic acid,3.9,174.1082,4.93810645699,-12.2265898469,0.607760619559,16.9947596189,-0.604179979405,-0.500109973254,0.144140004077,0.469350007472,0.0668699973159,0.149345000384,C([C@@H]([C@@H]1C(=O)C(=O)C(=O)O1)O)O
Desipramine,10.4,266.3807,0.640222173296,228.103384244,0.734520869959,10.0983354257,-0.816240012202,-0.967050016926,0.153104998615,0.291140003993,-0.456970005784,-0.527915009366,CNCCCN1c2ccccc2CCc3c1cccc3
Desogestrel,13.04,310.473,2.99055882854,1.47648378029,0.593684415086,13.3002466582,-0.592040002574,-0.842220007943,0.235269993315,0.471210003329,-0.0908600007295,-0.0972766660823,CC[C@]12CC(=C)[C@H]3[C@H]([C@@H]1CC[C@]2(C#C)O)CCC4=CCCC[C@H]34